|===============================================================================
|
|  DFTB+ release 19.1
|
|  Copyright (C) 2006 - 2019  DFTB+ developers group
|
|===============================================================================
|
|  When publishing results obtained with DFTB+, please cite the following
|  reference:
|
|  * B. Aradi, B. Hourahine and T. Frauenheim,
|    DFTB+, a Sparse Matrix-Based Implementation of the DFTB Method,
|    J. Phys. Chem. A, 111 5678 (2007).  [doi: 10.1021/jp070186p]
|
|  You should also cite additional publications crediting the parametrization
|  data you use. Please consult the documentation of the SK-files for the
|  references.
|
|===============================================================================

Reading input file 'dftb_in.hsd'
Parser version: 7

--------------------------------------------------------------------------------
***  Converting input from version  4 to version  7 ...
WARNING!
-> Adding legacy step size for finite difference differentiation
Path: dftbplusinput/Hamiltonian/DFTB/Differentiation

***  Done.

Reading SK-files:
Done.


Processed input in HSD format written to 'dftb_pin.hsd'

Starting initialization...
--------------------------------------------------------------------------------
OpenMP threads:              1
Chosen random seed:          705651276
Mode:                        2nd derivatives calculation
Mode:                        Calculated for atoms:
 1 2 3 4 5 6
 7 8 9 10 11 12
 13 14 15 16 17 18
 19 20 21 22 23 24
 25 26 27 28 29 30
 31 32 33 34 35 36
 37 38 39 40 41 42
 43 44 45 46 47 48
 49 50 51 52 53 54
 55 56 57 58 59 60
 61 62
Self consistent charges:     Yes
SCC-tolerance:                 0.100000E-04
Max. scc iterations:                    100
Shell resolved Hubbard:      No
Spin polarisation:           No
Nr. of up electrons:           178.000000
Nr. of down electrons:         178.000000
Periodic boundaries:         No
Electronic solver:           Relatively robust
Mixer:                       Broyden mixer
Mixing parameter:                  0.200000
Maximal SCC-cycles:                     100
Nr. of chrg. vec. in memory:              0
Electronic temperature:        0.100000E-07 H      0.272114E-06 eV
Initial charges:             Set automatically (system chrg:   0.000E+00)
Included shells:            Si:  s, p, d
                             F:  s, p
Using Lennard-Jones dispersion corrections
Extra options:
                             Mulliken analysis
Force type                   original

--------------------------------------------------------------------------------

***  Geometry step: 0

 iSCC Total electronic   Diff electronic      SCC error    
    1   -0.19235907E+03    0.00000000E+00    0.17241387E+01
    2   -0.19276904E+03   -0.40996522E+00    0.13585147E+01
    3   -0.19294740E+03   -0.17836388E+00    0.51058698E+00
    4   -0.19301543E+03   -0.68029618E-01    0.24558136E+00
    5   -0.19301582E+03   -0.38775955E-03    0.12511529E+00
    6   -0.19302756E+03   -0.11741689E-01    0.18946669E-01
    7   -0.19302779E+03   -0.22793308E-03    0.66768201E-02
    8   -0.19302783E+03   -0.38384204E-04    0.14201443E-02
    9   -0.19302783E+03   -0.82595935E-06    0.25061764E-03
   10   -0.19302783E+03   -0.16255115E-07    0.18102179E-03
   11   -0.19302783E+03   -0.33386385E-07    0.63497038E-04
   12   -0.19302783E+03   -0.10874146E-08    0.74294161E-05
 
Total Energy:                     -192.4965097901 H        -5238.0965 eV
Extrapolated to 0:                -192.4965097901 H        -5238.0965 eV
Total Mermin free energy:         -192.4965097901 H        -5238.0965 eV
Force related energy:             -192.4965097901 H        -5238.0965 eV

--------------------------------------------------------------------------------

***  Geometry step: 1

 iSCC Total electronic   Diff electronic      SCC error    
    1   -0.19302782E+03    0.00000000E+00    0.67133125E-04
    2   -0.19302782E+03   -0.48731863E-09    0.44036087E-04
    3   -0.19302782E+03   -0.27563374E-09    0.66602405E-05
 
Total Energy:                     -192.4965097922 H        -5238.0965 eV
Extrapolated to 0:                -192.4965097922 H        -5238.0965 eV
Total Mermin free energy:         -192.4965097922 H        -5238.0965 eV
Force related energy:             -192.4965097922 H        -5238.0965 eV

--------------------------------------------------------------------------------

***  Geometry step: 2

 iSCC Total electronic   Diff electronic      SCC error    
    1   -0.19302782E+03    0.00000000E+00    0.50465909E-04
    2   -0.19302782E+03   -0.21896085E-09    0.31968688E-04
    3   -0.19302782E+03   -0.14262014E-09    0.30277347E-05
 
Total Energy:                     -192.4965097917 H        -5238.0965 eV
Extrapolated to 0:                -192.4965097917 H        -5238.0965 eV
Total Mermin free energy:         -192.4965097917 H        -5238.0965 eV
Force related energy:             -192.4965097917 H        -5238.0965 eV

--------------------------------------------------------------------------------

***  Geometry step: 3

 iSCC Total electronic   Diff electronic      SCC error    
    1   -0.19302783E+03    0.00000000E+00    0.64268917E-04
    2   -0.19302783E+03   -0.38571102E-09    0.40005186E-04
    3   -0.19302783E+03   -0.23257485E-09    0.56884215E-05
 
Total Energy:                     -192.4965097910 H        -5238.0965 eV
Extrapolated to 0:                -192.4965097910 H        -5238.0965 eV
Total Mermin free energy:         -192.4965097910 H        -5238.0965 eV
Force related energy:             -192.4965097910 H        -5238.0965 eV

--------------------------------------------------------------------------------

***  Geometry step: 4

 iSCC Total electronic   Diff electronic      SCC error    
    1   -0.19302782E+03    0.00000000E+00    0.28570277E-04
    2   -0.19302782E+03   -0.86600949E-10    0.19288704E-04
    3   -0.19302782E+03   -0.40159875E-10    0.34045974E-05
 
Total Energy:                     -192.4965097947 H        -5238.0965 eV
Extrapolated to 0:                -192.4965097947 H        -5238.0965 eV
Total Mermin free energy:         -192.4965097947 H        -5238.0965 eV
Force related energy:             -192.4965097947 H        -5238.0965 eV

--------------------------------------------------------------------------------

***  Geometry step: 5

 iSCC Total electronic   Diff electronic      SCC error    
    1   -0.19302782E+03    0.00000000E+00    0.51566948E-04
    2   -0.19302782E+03   -0.11732482E-09    0.33259490E-04
    3   -0.19302782E+03   -0.57411853E-10    0.26541770E-05
 
Total Energy:                     -192.4965097907 H        -5238.0965 eV
Extrapolated to 0:                -192.4965097907 H        -5238.0965 eV
Total Mermin free energy:         -192.4965097907 H        -5238.0965 eV
Force related energy:             -192.4965097907 H        -5238.0965 eV

--------------------------------------------------------------------------------

***  Geometry step: 6

 iSCC Total electronic   Diff electronic      SCC error    
    1   -0.19302783E+03    0.00000000E+00    0.33989435E-04
    2   -0.19302783E+03   -0.13858426E-09    0.21341664E-04
    3   -0.19302783E+03   -0.78927087E-10    0.24972517E-05
 
Total Energy:                     -192.4965097959 H        -5238.0965 eV
Extrapolated to 0:                -192.4965097959 H        -5238.0965 eV
Total Mermin free energy:         -192.4965097959 H        -5238.0965 eV
Force related energy:             -192.4965097959 H        -5238.0965 eV

--------------------------------------------------------------------------------

***  Geometry step: 7

 iSCC Total electronic   Diff electronic      SCC error    
    1   -0.19302782E+03    0.00000000E+00    0.68147260E-04
    2   -0.19302782E+03   -0.39571546E-09    0.42769405E-04
    3   -0.19302782E+03   -0.25090685E-09    0.34985132E-05
 
Total Energy:                     -192.4965097863 H        -5238.0965 eV
Extrapolated to 0:                -192.4965097863 H        -5238.0965 eV
Total Mermin free energy:         -192.4965097863 H        -5238.0965 eV
Force related energy:             -192.4965097863 H        -5238.0965 eV

--------------------------------------------------------------------------------

***  Geometry step: 8

 iSCC Total electronic   Diff electronic      SCC error    
    1   -0.19302783E+03    0.00000000E+00    0.52612780E-04
    2   -0.19302783E+03   -0.26327029E-09    0.34099356E-04
    3   -0.19302783E+03   -0.14043167E-09    0.58773130E-05
 
Total Energy:                     -192.4965097908 H        -5238.0965 eV
Extrapolated to 0:                -192.4965097908 H        -5238.0965 eV
Total Mermin free energy:         -192.4965097908 H        -5238.0965 eV
Force related energy:             -192.4965097908 H        -5238.0965 eV

--------------------------------------------------------------------------------

***  Geometry step: 9

 iSCC Total electronic   Diff electronic      SCC error    
    1   -0.19302782E+03    0.00000000E+00    0.68898584E-04
    2   -0.19302782E+03   -0.44664716E-09    0.44443588E-04
    3   -0.19302782E+03   -0.22183144E-09    0.83037910E-05
 
Total Energy:                     -192.4965097930 H        -5238.0965 eV
Extrapolated to 0:                -192.4965097930 H        -5238.0965 eV
Total Mermin free energy:         -192.4965097930 H        -5238.0965 eV
Force related energy:             -192.4965097930 H        -5238.0965 eV

--------------------------------------------------------------------------------

***  Geometry step: 10

 iSCC Total electronic   Diff electronic      SCC error    
    1   -0.19302783E+03    0.00000000E+00    0.48881687E-04
    2   -0.19302783E+03   -0.29029934E-09    0.31119474E-04
    3   -0.19302783E+03   -0.15356250E-09    0.42724617E-05
 
Total Energy:                     -192.4965097973 H        -5238.0965 eV
Extrapolated to 0:                -192.4965097973 H        -5238.0965 eV
Total Mermin free energy:         -192.4965097973 H        -5238.0965 eV
Force related energy:             -192.4965097973 H        -5238.0965 eV

--------------------------------------------------------------------------------

***  Geometry step: 11

 iSCC Total electronic   Diff electronic      SCC error    
    1   -0.19302782E+03    0.00000000E+00    0.51301673E-04
    2   -0.19302782E+03   -0.21950086E-09    0.33614104E-04
    3   -0.19302782E+03   -0.12462920E-09    0.32504945E-05
 
Total Energy:                     -192.4965097871 H        -5238.0965 eV
Extrapolated to 0:                -192.4965097871 H        -5238.0965 eV
Total Mermin free energy:         -192.4965097871 H        -5238.0965 eV
Force related energy:             -192.4965097871 H        -5238.0965 eV

--------------------------------------------------------------------------------

***  Geometry step: 12

 iSCC Total electronic   Diff electronic      SCC error    
    1   -0.19302782E+03    0.00000000E+00    0.27243866E-04
    2   -0.19302782E+03   -0.11655743E-09    0.19111884E-04
    3   -0.19302782E+03   -0.57525540E-10    0.40164759E-05
 
Total Energy:                     -192.4965097936 H        -5238.0965 eV
Extrapolated to 0:                -192.4965097936 H        -5238.0965 eV
Total Mermin free energy:         -192.4965097936 H        -5238.0965 eV
Force related energy:             -192.4965097936 H        -5238.0965 eV

--------------------------------------------------------------------------------

***  Geometry step: 13

 iSCC Total electronic   Diff electronic      SCC error    
    1   -0.19302783E+03    0.00000000E+00    0.53176969E-04
    2   -0.19302783E+03   -0.20554580E-09    0.36672381E-04
    3   -0.19302783E+03   -0.97401198E-10    0.61048056E-05
 
Total Energy:                     -192.4965097916 H        -5238.0965 eV
Extrapolated to 0:                -192.4965097916 H        -5238.0965 eV
Total Mermin free energy:         -192.4965097916 H        -5238.0965 eV
Force related energy:             -192.4965097916 H        -5238.0965 eV

--------------------------------------------------------------------------------

***  Geometry step: 14

 iSCC Total electronic   Diff electronic      SCC error    
    1   -0.19302782E+03    0.00000000E+00    0.34296134E-04
    2   -0.19302782E+03   -0.15535306E-09    0.22323651E-04
    3   -0.19302782E+03   -0.77420736E-10    0.41639663E-05
 
Total Energy:                     -192.4965097919 H        -5238.0965 eV
Extrapolated to 0:                -192.4965097919 H        -5238.0965 eV
Total Mermin free energy:         -192.4965097919 H        -5238.0965 eV
Force related energy:             -192.4965097919 H        -5238.0965 eV

--------------------------------------------------------------------------------

***  Geometry step: 15

 iSCC Total electronic   Diff electronic      SCC error    
    1   -0.19302782E+03    0.00000000E+00    0.67616609E-04
    2   -0.19302782E+03   -0.41018211E-09    0.42687633E-04
    3   -0.19302782E+03   -0.26673774E-09    0.32137574E-05
 
Total Energy:                     -192.4965097899 H        -5238.0965 eV
Extrapolated to 0:                -192.4965097899 H        -5238.0965 eV
Total Mermin free energy:         -192.4965097899 H        -5238.0965 eV
Force related energy:             -192.4965097899 H        -5238.0965 eV

--------------------------------------------------------------------------------

***  Geometry step: 16

 iSCC Total electronic   Diff electronic      SCC error    
    1   -0.19302783E+03    0.00000000E+00    0.42313342E-04
    2   -0.19302783E+03   -0.16481749E-09    0.26419649E-04
    3   -0.19302783E+03   -0.10206236E-09    0.27112653E-05
 
Total Energy:                     -192.4965097943 H        -5238.0965 eV
Extrapolated to 0:                -192.4965097943 H        -5238.0965 eV
Total Mermin free energy:         -192.4965097943 H        -5238.0965 eV
Force related energy:             -192.4965097943 H        -5238.0965 eV

--------------------------------------------------------------------------------

***  Geometry step: 17

 iSCC Total electronic   Diff electronic      SCC error    
    1   -0.19302782E+03    0.00000000E+00    0.72449968E-04
    2   -0.19302782E+03   -0.41401904E-09    0.47383849E-04
    3   -0.19302782E+03   -0.21404389E-09    0.65669040E-05
 
Total Energy:                     -192.4965097891 H        -5238.0965 eV
Extrapolated to 0:                -192.4965097891 H        -5238.0965 eV
Total Mermin free energy:         -192.4965097891 H        -5238.0965 eV
Force related energy:             -192.4965097891 H        -5238.0965 eV

--------------------------------------------------------------------------------

***  Geometry step: 18

 iSCC Total electronic   Diff electronic      SCC error    
    1   -0.19302782E+03    0.00000000E+00    0.34563454E-04
    2   -0.19302782E+03   -0.15424462E-09    0.21743967E-04
    3   -0.19302782E+03   -0.76312290E-10    0.31747785E-05
 
Total Energy:                     -192.4965097920 H        -5238.0965 eV
Extrapolated to 0:                -192.4965097920 H        -5238.0965 eV
Total Mermin free energy:         -192.4965097920 H        -5238.0965 eV
Force related energy:             -192.4965097920 H        -5238.0965 eV

--------------------------------------------------------------------------------

***  Geometry step: 19

 iSCC Total electronic   Diff electronic      SCC error    
    1   -0.19302782E+03    0.00000000E+00    0.44707229E-04
    2   -0.19302782E+03   -0.67728934E-10    0.26283558E-04
    3   -0.19302782E+03   -0.23476332E-10    0.23586335E-05
 
Total Energy:                     -192.4965097943 H        -5238.0965 eV
Extrapolated to 0:                -192.4965097943 H        -5238.0965 eV
Total Mermin free energy:         -192.4965097943 H        -5238.0965 eV
Force related energy:             -192.4965097943 H        -5238.0965 eV

--------------------------------------------------------------------------------

***  Geometry step: 20

 iSCC Total electronic   Diff electronic      SCC error    
    1   -0.19302782E+03    0.00000000E+00    0.27787955E-04
    2   -0.19302782E+03   -0.36607162E-10    0.15842015E-04
    3   -0.19302782E+03   -0.11368684E-10    0.14184289E-05
 
Total Energy:                     -192.4965097923 H        -5238.0965 eV
Extrapolated to 0:                -192.4965097923 H        -5238.0965 eV
Total Mermin free energy:         -192.4965097923 H        -5238.0965 eV
Force related energy:             -192.4965097923 H        -5238.0965 eV

--------------------------------------------------------------------------------

***  Geometry step: 21

 iSCC Total electronic   Diff electronic      SCC error    
    1   -0.19302782E+03    0.00000000E+00    0.41216295E-04
    2   -0.19302782E+03   -0.70315309E-10    0.23610944E-04
    3   -0.19302782E+03   -0.21628921E-10    0.19234219E-05
 
Total Energy:                     -192.4965097939 H        -5238.0965 eV
Extrapolated to 0:                -192.4965097939 H        -5238.0965 eV
Total Mermin free energy:         -192.4965097939 H        -5238.0965 eV
Force related energy:             -192.4965097939 H        -5238.0965 eV

--------------------------------------------------------------------------------

***  Geometry step: 22

 iSCC Total electronic   Diff electronic      SCC error    
    1   -0.19302782E+03    0.00000000E+00    0.28658087E-04
    2   -0.19302782E+03   -0.34077630E-10    0.16745300E-04
    3   -0.19302782E+03   -0.11965540E-10    0.17963818E-05
 
Total Energy:                     -192.4965097907 H        -5238.0965 eV
Extrapolated to 0:                -192.4965097907 H        -5238.0965 eV
Total Mermin free energy:         -192.4965097907 H        -5238.0965 eV
Force related energy:             -192.4965097907 H        -5238.0965 eV

--------------------------------------------------------------------------------

***  Geometry step: 23

 iSCC Total electronic   Diff electronic      SCC error    
    1   -0.19302782E+03    0.00000000E+00    0.35498866E-04
    2   -0.19302782E+03   -0.47805315E-10    0.20857074E-04
    3   -0.19302782E+03   -0.22566837E-10    0.24112584E-05
 
Total Energy:                     -192.4965097955 H        -5238.0965 eV
Extrapolated to 0:                -192.4965097955 H        -5238.0965 eV
Total Mermin free energy:         -192.4965097955 H        -5238.0965 eV
Force related energy:             -192.4965097955 H        -5238.0965 eV

--------------------------------------------------------------------------------

***  Geometry step: 24

 iSCC Total electronic   Diff electronic      SCC error    
    1   -0.19302782E+03    0.00000000E+00    0.28349086E-04
    2   -0.19302782E+03   -0.59287686E-10    0.20195824E-04
    3   -0.19302782E+03   -0.27114311E-10    0.50544609E-05
 
Total Energy:                     -192.4965097955 H        -5238.0965 eV
Extrapolated to 0:                -192.4965097955 H        -5238.0965 eV
Total Mermin free energy:         -192.4965097955 H        -5238.0965 eV
Force related energy:             -192.4965097955 H        -5238.0965 eV

--------------------------------------------------------------------------------

***  Geometry step: 25

 iSCC Total electronic   Diff electronic      SCC error    
    1   -0.19302782E+03    0.00000000E+00    0.53452040E-04
    2   -0.19302782E+03   -0.19969093E-09    0.38058021E-04
    3   -0.19302782E+03   -0.91660013E-10    0.91221448E-05
 
Total Energy:                     -192.4965097897 H        -5238.0965 eV
Extrapolated to 0:                -192.4965097897 H        -5238.0965 eV
Total Mermin free energy:         -192.4965097897 H        -5238.0965 eV
Force related energy:             -192.4965097897 H        -5238.0965 eV

--------------------------------------------------------------------------------

***  Geometry step: 26

 iSCC Total electronic   Diff electronic      SCC error    
    1   -0.19302782E+03    0.00000000E+00    0.25860769E-04
    2   -0.19302782E+03   -0.16086688E-10    0.18342692E-04
    3   -0.19302782E+03   -0.57127636E-11    0.29971250E-05
 
Total Energy:                     -192.4965097984 H        -5238.0965 eV
Extrapolated to 0:                -192.4965097984 H        -5238.0965 eV
Total Mermin free energy:         -192.4965097984 H        -5238.0965 eV
Force related energy:             -192.4965097984 H        -5238.0965 eV

--------------------------------------------------------------------------------

***  Geometry step: 27

 iSCC Total electronic   Diff electronic      SCC error    
    1   -0.19302782E+03    0.00000000E+00    0.60880095E-04
    2   -0.19302782E+03   -0.27077363E-09    0.43091186E-04
    3   -0.19302782E+03   -0.12320811E-09    0.99812660E-05
 
Total Energy:                     -192.4965097864 H        -5238.0965 eV
Extrapolated to 0:                -192.4965097864 H        -5238.0965 eV
Total Mermin free energy:         -192.4965097864 H        -5238.0965 eV
Force related energy:             -192.4965097864 H        -5238.0965 eV

--------------------------------------------------------------------------------

***  Geometry step: 28

 iSCC Total electronic   Diff electronic      SCC error    
    1   -0.19302782E+03    0.00000000E+00    0.55646072E-04
    2   -0.19302782E+03   -0.33773517E-09    0.32327906E-04
    3   -0.19302782E+03   -0.15248247E-09    0.72440497E-05
 
Total Energy:                     -192.4965097921 H        -5238.0965 eV
Extrapolated to 0:                -192.4965097921 H        -5238.0965 eV
Total Mermin free energy:         -192.4965097921 H        -5238.0965 eV
Force related energy:             -192.4965097921 H        -5238.0965 eV

--------------------------------------------------------------------------------

***  Geometry step: 29

 iSCC Total electronic   Diff electronic      SCC error    
    1   -0.19302783E+03    0.00000000E+00    0.58481917E-04
    2   -0.19302783E+03   -0.36845904E-09    0.39574535E-04
    3   -0.19302783E+03   -0.16541435E-09    0.97018627E-05
 
Total Energy:                     -192.4965097925 H        -5238.0965 eV
Extrapolated to 0:                -192.4965097925 H        -5238.0965 eV
Total Mermin free energy:         -192.4965097925 H        -5238.0965 eV
Force related energy:             -192.4965097925 H        -5238.0965 eV

--------------------------------------------------------------------------------

***  Geometry step: 30

 iSCC Total electronic   Diff electronic      SCC error    
    1   -0.19302782E+03    0.00000000E+00    0.29966606E-04
    2   -0.19302782E+03   -0.11911538E-09    0.16851121E-04
    3   -0.19302782E+03   -0.51727511E-10    0.37963505E-05
 
Total Energy:                     -192.4965097882 H        -5238.0965 eV
Extrapolated to 0:                -192.4965097882 H        -5238.0965 eV
Total Mermin free energy:         -192.4965097882 H        -5238.0965 eV
Force related energy:             -192.4965097882 H        -5238.0965 eV

--------------------------------------------------------------------------------

***  Geometry step: 31

 iSCC Total electronic   Diff electronic      SCC error    
    1   -0.19302782E+03    0.00000000E+00    0.35307621E-04
    2   -0.19302782E+03   -0.32400749E-10    0.24763846E-04
    3   -0.19302782E+03   -0.12676082E-10    0.42514486E-05
 
Total Energy:                     -192.4965097977 H        -5238.0965 eV
Extrapolated to 0:                -192.4965097977 H        -5238.0965 eV
Total Mermin free energy:         -192.4965097977 H        -5238.0965 eV
Force related energy:             -192.4965097977 H        -5238.0965 eV

--------------------------------------------------------------------------------

***  Geometry step: 32

 iSCC Total electronic   Diff electronic      SCC error    
    1   -0.19302783E+03    0.00000000E+00    0.41501656E-04
    2   -0.19302783E+03   -0.14216539E-09    0.29248996E-04
    3   -0.19302783E+03   -0.64773076E-10    0.65190049E-05
 
Total Energy:                     -192.4965097921 H        -5238.0965 eV
Extrapolated to 0:                -192.4965097921 H        -5238.0965 eV
Total Mermin free energy:         -192.4965097921 H        -5238.0965 eV
Force related energy:             -192.4965097921 H        -5238.0965 eV

--------------------------------------------------------------------------------

***  Geometry step: 33

 iSCC Total electronic   Diff electronic      SCC error    
    1   -0.19302782E+03    0.00000000E+00    0.82638373E-04
    2   -0.19302782E+03   -0.66904704E-09    0.49008354E-04
    3   -0.19302782E+03   -0.30777869E-09    0.11270348E-04
    4   -0.19302782E+03   -0.70770056E-11    0.18562664E-05
 
Total Energy:                     -192.4965097913 H        -5238.0965 eV
Extrapolated to 0:                -192.4965097913 H        -5238.0965 eV
Total Mermin free energy:         -192.4965097913 H        -5238.0965 eV
Force related energy:             -192.4965097913 H        -5238.0965 eV

--------------------------------------------------------------------------------

***  Geometry step: 34

 iSCC Total electronic   Diff electronic      SCC error    
    1   -0.19302782E+03    0.00000000E+00    0.35554113E-04
    2   -0.19302782E+03   -0.66222583E-10    0.25248922E-04
    3   -0.19302782E+03   -0.31775471E-10    0.49772948E-05
 
Total Energy:                     -192.4965097949 H        -5238.0965 eV
Extrapolated to 0:                -192.4965097949 H        -5238.0965 eV
Total Mermin free energy:         -192.4965097949 H        -5238.0965 eV
Force related energy:             -192.4965097949 H        -5238.0965 eV

--------------------------------------------------------------------------------

***  Geometry step: 35

 iSCC Total electronic   Diff electronic      SCC error    
    1   -0.19302782E+03    0.00000000E+00    0.50993303E-04
    2   -0.19302782E+03   -0.12241230E-09    0.35805287E-04
    3   -0.19302782E+03   -0.54882321E-10    0.60277868E-05
 
Total Energy:                     -192.4965097905 H        -5238.0965 eV
Extrapolated to 0:                -192.4965097905 H        -5238.0965 eV
Total Mermin free energy:         -192.4965097905 H        -5238.0965 eV
Force related energy:             -192.4965097905 H        -5238.0965 eV

--------------------------------------------------------------------------------

***  Geometry step: 36

 iSCC Total electronic   Diff electronic      SCC error    
    1   -0.19302782E+03    0.00000000E+00    0.41579614E-04
    2   -0.19302782E+03   -0.21549340E-09    0.25078407E-04
    3   -0.19302782E+03   -0.97401198E-10    0.55741091E-05
 
Total Energy:                     -192.4965097940 H        -5238.0965 eV
Extrapolated to 0:                -192.4965097940 H        -5238.0965 eV
Total Mermin free energy:         -192.4965097940 H        -5238.0965 eV
Force related energy:             -192.4965097940 H        -5238.0965 eV

--------------------------------------------------------------------------------

***  Geometry step: 37

 iSCC Total electronic   Diff electronic      SCC error    
    1   -0.19302783E+03    0.00000000E+00    0.82349369E-04
    2   -0.19302783E+03   -0.68584427E-09    0.48646912E-04
    3   -0.19302783E+03   -0.31306513E-09    0.10073073E-04
    4   -0.19302783E+03   -0.72475359E-11    0.18135619E-05
 
Total Energy:                     -192.4965097892 H        -5238.0965 eV
Extrapolated to 0:                -192.4965097892 H        -5238.0965 eV
Total Mermin free energy:         -192.4965097892 H        -5238.0965 eV
Force related energy:             -192.4965097892 H        -5238.0965 eV

--------------------------------------------------------------------------------

***  Geometry step: 38

 iSCC Total electronic   Diff electronic      SCC error    
    1   -0.19302782E+03    0.00000000E+00    0.55969747E-04
    2   -0.19302782E+03   -0.31562308E-09    0.33414466E-04
    3   -0.19302782E+03   -0.14861712E-09    0.78354203E-05
 
Total Energy:                     -192.4965097891 H        -5238.0965 eV
Extrapolated to 0:                -192.4965097891 H        -5238.0965 eV
Total Mermin free energy:         -192.4965097891 H        -5238.0965 eV
Force related energy:             -192.4965097891 H        -5238.0965 eV

--------------------------------------------------------------------------------

***  Geometry step: 39

 iSCC Total electronic   Diff electronic      SCC error    
    1   -0.19302782E+03    0.00000000E+00    0.45001092E-04
    2   -0.19302782E+03   -0.14009061E-09    0.31905815E-04
    3   -0.19302782E+03   -0.61362471E-10    0.76793771E-05
 
Total Energy:                     -192.4965097964 H        -5238.0965 eV
Extrapolated to 0:                -192.4965097964 H        -5238.0965 eV
Total Mermin free energy:         -192.4965097964 H        -5238.0965 eV
Force related energy:             -192.4965097964 H        -5238.0965 eV

--------------------------------------------------------------------------------

***  Geometry step: 40

 iSCC Total electronic   Diff electronic      SCC error    
    1   -0.19302782E+03    0.00000000E+00    0.25151578E-04
    2   -0.19302782E+03   -0.37147174E-10    0.17701883E-04
    3   -0.19302782E+03   -0.14750867E-10    0.34788056E-05
 
Total Energy:                     -192.4965097924 H        -5238.0965 eV
Extrapolated to 0:                -192.4965097924 H        -5238.0965 eV
Total Mermin free energy:         -192.4965097924 H        -5238.0965 eV
Force related energy:             -192.4965097924 H        -5238.0965 eV

--------------------------------------------------------------------------------

***  Geometry step: 41

 iSCC Total electronic   Diff electronic      SCC error    
    1   -0.19302782E+03    0.00000000E+00    0.34316254E-04
    2   -0.19302782E+03   -0.33708147E-10    0.23951366E-04
    3   -0.19302782E+03   -0.14978241E-10    0.36701981E-05
 
Total Energy:                     -192.4965097936 H        -5238.0965 eV
Extrapolated to 0:                -192.4965097936 H        -5238.0965 eV
Total Mermin free energy:         -192.4965097936 H        -5238.0965 eV
Force related energy:             -192.4965097936 H        -5238.0965 eV

--------------------------------------------------------------------------------

***  Geometry step: 42

 iSCC Total electronic   Diff electronic      SCC error    
    1   -0.19302782E+03    0.00000000E+00    0.17375083E-04
    2   -0.19302782E+03   -0.20065727E-10    0.12010010E-04
    3   -0.19302782E+03   -0.89812602E-11    0.22642075E-05
 
Total Energy:                     -192.4965097909 H        -5238.0965 eV
Extrapolated to 0:                -192.4965097909 H        -5238.0965 eV
Total Mermin free energy:         -192.4965097909 H        -5238.0965 eV
Force related energy:             -192.4965097909 H        -5238.0965 eV

--------------------------------------------------------------------------------

***  Geometry step: 43

 iSCC Total electronic   Diff electronic      SCC error    
    1   -0.19302782E+03    0.00000000E+00    0.30119113E-04
    2   -0.19302782E+03   -0.30439651E-10    0.18211628E-04
    3   -0.19302782E+03   -0.90949470E-11    0.44485576E-05
 
Total Energy:                     -192.4965097951 H        -5238.0965 eV
Extrapolated to 0:                -192.4965097951 H        -5238.0965 eV
Total Mermin free energy:         -192.4965097951 H        -5238.0965 eV
Force related energy:             -192.4965097951 H        -5238.0965 eV

--------------------------------------------------------------------------------

***  Geometry step: 44

 iSCC Total electronic   Diff electronic      SCC error    
    1   -0.19302782E+03    0.00000000E+00    0.14906635E-04
    2   -0.19302782E+03   -0.14580337E-10    0.10877358E-04
    3   -0.19302782E+03   -0.37800874E-11    0.37776923E-05
 
Total Energy:                     -192.4965097929 H        -5238.0965 eV
Extrapolated to 0:                -192.4965097929 H        -5238.0965 eV
Total Mermin free energy:         -192.4965097929 H        -5238.0965 eV
Force related energy:             -192.4965097929 H        -5238.0965 eV

--------------------------------------------------------------------------------

***  Geometry step: 45

 iSCC Total electronic   Diff electronic      SCC error    
    1   -0.19302782E+03    0.00000000E+00    0.22526353E-04
    2   -0.19302782E+03   -0.87254648E-11    0.16777088E-04
    3   -0.19302782E+03   -0.28990144E-11    0.23156409E-05
 
Total Energy:                     -192.4965097930 H        -5238.0965 eV
Extrapolated to 0:                -192.4965097930 H        -5238.0965 eV
Total Mermin free energy:         -192.4965097930 H        -5238.0965 eV
Force related energy:             -192.4965097930 H        -5238.0965 eV

--------------------------------------------------------------------------------

***  Geometry step: 46

 iSCC Total electronic   Diff electronic      SCC error    
    1   -0.19302782E+03    0.00000000E+00    0.28893263E-04
    2   -0.19302782E+03   -0.26261660E-10    0.17430415E-04
    3   -0.19302782E+03   -0.72191142E-11    0.33513919E-05
 
Total Energy:                     -192.4965097894 H        -5238.0965 eV
Extrapolated to 0:                -192.4965097894 H        -5238.0965 eV
Total Mermin free energy:         -192.4965097894 H        -5238.0965 eV
Force related energy:             -192.4965097894 H        -5238.0965 eV

--------------------------------------------------------------------------------

***  Geometry step: 47

 iSCC Total electronic   Diff electronic      SCC error    
    1   -0.19302782E+03    0.00000000E+00    0.54139874E-04
    2   -0.19302782E+03   -0.85407237E-10    0.32314717E-04
    3   -0.19302782E+03   -0.21628921E-10    0.46765037E-05
 
Total Energy:                     -192.4965097966 H        -5238.0965 eV
Extrapolated to 0:                -192.4965097966 H        -5238.0965 eV
Total Mermin free energy:         -192.4965097966 H        -5238.0965 eV
Force related energy:             -192.4965097966 H        -5238.0965 eV

--------------------------------------------------------------------------------

***  Geometry step: 48

 iSCC Total electronic   Diff electronic      SCC error    
    1   -0.19302783E+03    0.00000000E+00    0.41201448E-04
    2   -0.19302783E+03   -0.18710011E-09    0.24677154E-04
    3   -0.19302783E+03   -0.85293550E-10    0.40300572E-05
 
Total Energy:                     -192.4965097961 H        -5238.0965 eV
Extrapolated to 0:                -192.4965097961 H        -5238.0965 eV
Total Mermin free energy:         -192.4965097961 H        -5238.0965 eV
Force related energy:             -192.4965097961 H        -5238.0965 eV

--------------------------------------------------------------------------------

***  Geometry step: 49

 iSCC Total electronic   Diff electronic      SCC error    
    1   -0.19302782E+03    0.00000000E+00    0.81058353E-04
    2   -0.19302782E+03   -0.73160322E-09    0.48335524E-04
    3   -0.19302782E+03   -0.33853098E-09    0.77826989E-05
 
Total Energy:                     -192.4965097871 H        -5238.0965 eV
Extrapolated to 0:                -192.4965097871 H        -5238.0965 eV
Total Mermin free energy:         -192.4965097871 H        -5238.0965 eV
Force related energy:             -192.4965097871 H        -5238.0965 eV

--------------------------------------------------------------------------------

***  Geometry step: 50

 iSCC Total electronic   Diff electronic      SCC error    
    1   -0.19302782E+03    0.00000000E+00    0.55237896E-04
    2   -0.19302782E+03   -0.40483883E-09    0.32075836E-04
    3   -0.19302782E+03   -0.17882940E-09    0.61022364E-05
 
Total Energy:                     -192.4965097900 H        -5238.0965 eV
Extrapolated to 0:                -192.4965097900 H        -5238.0965 eV
Total Mermin free energy:         -192.4965097900 H        -5238.0965 eV
Force related energy:             -192.4965097900 H        -5238.0965 eV

--------------------------------------------------------------------------------

***  Geometry step: 51

 iSCC Total electronic   Diff electronic      SCC error    
    1   -0.19302782E+03    0.00000000E+00    0.45605114E-04
    2   -0.19302782E+03   -0.16626700E-09    0.30647406E-04
    3   -0.19302782E+03   -0.70286887E-10    0.51718414E-05
 
Total Energy:                     -192.4965097954 H        -5238.0965 eV
Extrapolated to 0:                -192.4965097954 H        -5238.0965 eV
Total Mermin free energy:         -192.4965097954 H        -5238.0965 eV
Force related energy:             -192.4965097954 H        -5238.0965 eV

--------------------------------------------------------------------------------

***  Geometry step: 52

 iSCC Total electronic   Diff electronic      SCC error    
    1   -0.19302782E+03    0.00000000E+00    0.26895954E-04
    2   -0.19302782E+03   -0.52722271E-10    0.16531473E-04
    3   -0.19302782E+03   -0.19468871E-10    0.21169046E-05
 
Total Energy:                     -192.4965097912 H        -5238.0965 eV
Extrapolated to 0:                -192.4965097912 H        -5238.0965 eV
Total Mermin free energy:         -192.4965097912 H        -5238.0965 eV
Force related energy:             -192.4965097912 H        -5238.0965 eV

--------------------------------------------------------------------------------

***  Geometry step: 53

 iSCC Total electronic   Diff electronic      SCC error    
    1   -0.19302782E+03    0.00000000E+00    0.38219163E-04
    2   -0.19302782E+03   -0.70826900E-10    0.22036456E-04
    3   -0.19302782E+03   -0.24073188E-10    0.27262639E-05
 
Total Energy:                     -192.4965097947 H        -5238.0965 eV
Extrapolated to 0:                -192.4965097947 H        -5238.0965 eV
Total Mermin free energy:         -192.4965097947 H        -5238.0965 eV
Force related energy:             -192.4965097947 H        -5238.0965 eV

--------------------------------------------------------------------------------

***  Geometry step: 54

 iSCC Total electronic   Diff electronic      SCC error    
    1   -0.19302782E+03    0.00000000E+00    0.28302988E-04
    2   -0.19302782E+03   -0.58690830E-10    0.18707522E-04
    3   -0.19302782E+03   -0.25778490E-10    0.29069607E-05
 
Total Energy:                     -192.4965097910 H        -5238.0965 eV
Extrapolated to 0:                -192.4965097910 H        -5238.0965 eV
Total Mermin free energy:         -192.4965097910 H        -5238.0965 eV
Force related energy:             -192.4965097910 H        -5238.0965 eV

--------------------------------------------------------------------------------

***  Geometry step: 55

 iSCC Total electronic   Diff electronic      SCC error    
    1   -0.19302783E+03    0.00000000E+00    0.50919986E-04
    2   -0.19302783E+03   -0.14699708E-09    0.33622048E-04
    3   -0.19302783E+03   -0.75459639E-10    0.35177734E-05
 
Total Energy:                     -192.4965097938 H        -5238.0965 eV
Extrapolated to 0:                -192.4965097938 H        -5238.0965 eV
Total Mermin free energy:         -192.4965097938 H        -5238.0965 eV
Force related energy:             -192.4965097938 H        -5238.0965 eV

--------------------------------------------------------------------------------

***  Geometry step: 56

 iSCC Total electronic   Diff electronic      SCC error    
    1   -0.19302782E+03    0.00000000E+00    0.46452008E-04
    2   -0.19302782E+03   -0.19070967E-09    0.30814943E-04
    3   -0.19302782E+03   -0.97656994E-10    0.46455950E-05
 
Total Energy:                     -192.4965097846 H        -5238.0965 eV
Extrapolated to 0:                -192.4965097846 H        -5238.0965 eV
Total Mermin free energy:         -192.4965097846 H        -5238.0965 eV
Force related energy:             -192.4965097846 H        -5238.0965 eV

--------------------------------------------------------------------------------

***  Geometry step: 57

 iSCC Total electronic   Diff electronic      SCC error    
    1   -0.19302783E+03    0.00000000E+00    0.67383672E-04
    2   -0.19302783E+03   -0.49035975E-09    0.44576249E-04
    3   -0.19302783E+03   -0.27827696E-09    0.50746916E-05
 
Total Energy:                     -192.4965097979 H        -5238.0965 eV
Extrapolated to 0:                -192.4965097979 H        -5238.0965 eV
Total Mermin free energy:         -192.4965097979 H        -5238.0965 eV
Force related energy:             -192.4965097979 H        -5238.0965 eV

--------------------------------------------------------------------------------

***  Geometry step: 58

 iSCC Total electronic   Diff electronic      SCC error    
    1   -0.19302782E+03    0.00000000E+00    0.48145405E-04
    2   -0.19302782E+03   -0.24985525E-09    0.31276377E-04
    3   -0.19302782E+03   -0.12460077E-09    0.40116003E-05
 
Total Energy:                     -192.4965097952 H        -5238.0965 eV
Extrapolated to 0:                -192.4965097952 H        -5238.0965 eV
Total Mermin free energy:         -192.4965097952 H        -5238.0965 eV
Force related energy:             -192.4965097952 H        -5238.0965 eV

--------------------------------------------------------------------------------

***  Geometry step: 59

 iSCC Total electronic   Diff electronic      SCC error    
    1   -0.19302783E+03    0.00000000E+00    0.63724844E-04
    2   -0.19302783E+03   -0.35740300E-09    0.40270520E-04
    3   -0.19302783E+03   -0.20986590E-09    0.35766613E-05
 
Total Energy:                     -192.4965097878 H        -5238.0965 eV
Extrapolated to 0:                -192.4965097878 H        -5238.0965 eV
Total Mermin free energy:         -192.4965097878 H        -5238.0965 eV
Force related energy:             -192.4965097878 H        -5238.0965 eV

--------------------------------------------------------------------------------

***  Geometry step: 60

 iSCC Total electronic   Diff electronic      SCC error    
    1   -0.19302782E+03    0.00000000E+00    0.31731244E-04
    2   -0.19302782E+03   -0.17536195E-09    0.21373145E-04
    3   -0.19302782E+03   -0.97998054E-10    0.29286299E-05
 
Total Energy:                     -192.4965097880 H        -5238.0965 eV
Extrapolated to 0:                -192.4965097880 H        -5238.0965 eV
Total Mermin free energy:         -192.4965097880 H        -5238.0965 eV
Force related energy:             -192.4965097880 H        -5238.0965 eV

--------------------------------------------------------------------------------

***  Geometry step: 61

 iSCC Total electronic   Diff electronic      SCC error    
    1   -0.19302783E+03    0.00000000E+00    0.59237728E-04
    2   -0.19302783E+03   -0.36257575E-09    0.39983430E-04
    3   -0.19302783E+03   -0.19127810E-09    0.39979577E-05
 
Total Energy:                     -192.4965097951 H        -5238.0965 eV
Extrapolated to 0:                -192.4965097951 H        -5238.0965 eV
Total Mermin free energy:         -192.4965097951 H        -5238.0965 eV
Force related energy:             -192.4965097951 H        -5238.0965 eV

--------------------------------------------------------------------------------

***  Geometry step: 62

 iSCC Total electronic   Diff electronic      SCC error    
    1   -0.19302783E+03    0.00000000E+00    0.27335471E-04
    2   -0.19302783E+03   -0.70571105E-10    0.16934258E-04
    3   -0.19302783E+03   -0.34134473E-10    0.20942364E-05
 
Total Energy:                     -192.4965097935 H        -5238.0965 eV
Extrapolated to 0:                -192.4965097935 H        -5238.0965 eV
Total Mermin free energy:         -192.4965097935 H        -5238.0965 eV
Force related energy:             -192.4965097935 H        -5238.0965 eV

--------------------------------------------------------------------------------

***  Geometry step: 63

 iSCC Total electronic   Diff electronic      SCC error    
    1   -0.19302782E+03    0.00000000E+00    0.63594860E-04
    2   -0.19302782E+03   -0.24834890E-09    0.41380576E-04
    3   -0.19302782E+03   -0.12235546E-09    0.52868342E-05
 
Total Energy:                     -192.4965097916 H        -5238.0965 eV
Extrapolated to 0:                -192.4965097916 H        -5238.0965 eV
Total Mermin free energy:         -192.4965097916 H        -5238.0965 eV
Force related energy:             -192.4965097916 H        -5238.0965 eV

--------------------------------------------------------------------------------

***  Geometry step: 64

 iSCC Total electronic   Diff electronic      SCC error    
    1   -0.19302782E+03    0.00000000E+00    0.48609809E-04
    2   -0.19302782E+03   -0.20685320E-09    0.30893731E-04
    3   -0.19302782E+03   -0.12363444E-09    0.31984346E-05
 
Total Energy:                     -192.4965097912 H        -5238.0965 eV
Extrapolated to 0:                -192.4965097912 H        -5238.0965 eV
Total Mermin free energy:         -192.4965097912 H        -5238.0965 eV
Force related energy:             -192.4965097912 H        -5238.0965 eV

--------------------------------------------------------------------------------

***  Geometry step: 65

 iSCC Total electronic   Diff electronic      SCC error    
    1   -0.19302782E+03    0.00000000E+00    0.65307842E-04
    2   -0.19302782E+03   -0.34100367E-09    0.42024347E-04
    3   -0.19302782E+03   -0.23115376E-09    0.27862112E-05
 
Total Energy:                     -192.4965097909 H        -5238.0965 eV
Extrapolated to 0:                -192.4965097909 H        -5238.0965 eV
Total Mermin free energy:         -192.4965097909 H        -5238.0965 eV
Force related energy:             -192.4965097909 H        -5238.0965 eV

--------------------------------------------------------------------------------

***  Geometry step: 66

 iSCC Total electronic   Diff electronic      SCC error    
    1   -0.19302782E+03    0.00000000E+00    0.33069795E-04
    2   -0.19302782E+03   -0.14756552E-09    0.21275503E-04
    3   -0.19302782E+03   -0.99277031E-10    0.53346868E-05
 
Total Energy:                     -192.4965097898 H        -5238.0965 eV
Extrapolated to 0:                -192.4965097898 H        -5238.0965 eV
Total Mermin free energy:         -192.4965097898 H        -5238.0965 eV
Force related energy:             -192.4965097898 H        -5238.0965 eV

--------------------------------------------------------------------------------

***  Geometry step: 67

 iSCC Total electronic   Diff electronic      SCC error    
    1   -0.19302783E+03    0.00000000E+00    0.55182736E-04
    2   -0.19302783E+03   -0.23101165E-09    0.36712938E-04
    3   -0.19302783E+03   -0.15526780E-09    0.82179541E-05
 
Total Energy:                     -192.4965097932 H        -5238.0965 eV
Extrapolated to 0:                -192.4965097932 H        -5238.0965 eV
Total Mermin free energy:         -192.4965097932 H        -5238.0965 eV
Force related energy:             -192.4965097932 H        -5238.0965 eV

--------------------------------------------------------------------------------

***  Geometry step: 68

 iSCC Total electronic   Diff electronic      SCC error    
    1   -0.19302782E+03    0.00000000E+00    0.47969525E-04
    2   -0.19302782E+03   -0.12141754E-09    0.31557289E-04
    3   -0.19302782E+03   -0.67331030E-10    0.71902193E-05
 
Total Energy:                     -192.4965097913 H        -5238.0965 eV
Extrapolated to 0:                -192.4965097913 H        -5238.0965 eV
Total Mermin free energy:         -192.4965097913 H        -5238.0965 eV
Force related energy:             -192.4965097913 H        -5238.0965 eV

--------------------------------------------------------------------------------

***  Geometry step: 69

 iSCC Total electronic   Diff electronic      SCC error    
    1   -0.19302783E+03    0.00000000E+00    0.55872843E-04
    2   -0.19302783E+03   -0.24240876E-09    0.37109662E-04
    3   -0.19302783E+03   -0.16834178E-09    0.61227845E-05
 
Total Energy:                     -192.4965097908 H        -5238.0965 eV
Extrapolated to 0:                -192.4965097908 H        -5238.0965 eV
Total Mermin free energy:         -192.4965097908 H        -5238.0965 eV
Force related energy:             -192.4965097908 H        -5238.0965 eV

--------------------------------------------------------------------------------

***  Geometry step: 70

 iSCC Total electronic   Diff electronic      SCC error    
    1   -0.19302782E+03    0.00000000E+00    0.39300203E-04
    2   -0.19302782E+03   -0.12960300E-09    0.26160022E-04
    3   -0.19302782E+03   -0.93876906E-10    0.27302895E-05
 
Total Energy:                     -192.4965097930 H        -5238.0965 eV
Extrapolated to 0:                -192.4965097930 H        -5238.0965 eV
Total Mermin free energy:         -192.4965097930 H        -5238.0965 eV
Force related energy:             -192.4965097930 H        -5238.0965 eV

--------------------------------------------------------------------------------

***  Geometry step: 71

 iSCC Total electronic   Diff electronic      SCC error    
    1   -0.19302782E+03    0.00000000E+00    0.60398269E-04
    2   -0.19302782E+03   -0.23484859E-09    0.41022506E-04
    3   -0.19302782E+03   -0.17982416E-09    0.34430209E-05
 
Total Energy:                     -192.4965097879 H        -5238.0965 eV
Extrapolated to 0:                -192.4965097879 H        -5238.0965 eV
Total Mermin free energy:         -192.4965097879 H        -5238.0965 eV
Force related energy:             -192.4965097879 H        -5238.0965 eV

--------------------------------------------------------------------------------

***  Geometry step: 72

 iSCC Total electronic   Diff electronic      SCC error    
    1   -0.19302783E+03    0.00000000E+00    0.28622128E-04
    2   -0.19302783E+03   -0.10780354E-09    0.19298774E-04
    3   -0.19302783E+03   -0.64630967E-10    0.38637222E-05
 
Total Energy:                     -192.4965097965 H        -5238.0965 eV
Extrapolated to 0:                -192.4965097965 H        -5238.0965 eV
Total Mermin free energy:         -192.4965097965 H        -5238.0965 eV
Force related energy:             -192.4965097965 H        -5238.0965 eV

--------------------------------------------------------------------------------

***  Geometry step: 73

 iSCC Total electronic   Diff electronic      SCC error    
    1   -0.19302782E+03    0.00000000E+00    0.45459660E-04
    2   -0.19302782E+03   -0.22041036E-09    0.32893513E-04
    3   -0.19302782E+03   -0.94928509E-10    0.91449695E-05
 
Total Energy:                     -192.4965097884 H        -5238.0965 eV
Extrapolated to 0:                -192.4965097884 H        -5238.0965 eV
Total Mermin free energy:         -192.4965097884 H        -5238.0965 eV
Force related energy:             -192.4965097884 H        -5238.0965 eV

--------------------------------------------------------------------------------

***  Geometry step: 74

 iSCC Total electronic   Diff electronic      SCC error    
    1   -0.19302782E+03    0.00000000E+00    0.22719549E-04
    2   -0.19302782E+03   -0.77562845E-10    0.16339581E-04
    3   -0.19302782E+03   -0.31946001E-10    0.46411566E-05
 
Total Energy:                     -192.4965097949 H        -5238.0965 eV
Extrapolated to 0:                -192.4965097949 H        -5238.0965 eV
Total Mermin free energy:         -192.4965097949 H        -5238.0965 eV
Force related energy:             -192.4965097949 H        -5238.0965 eV

--------------------------------------------------------------------------------

***  Geometry step: 75

 iSCC Total electronic   Diff electronic      SCC error    
    1   -0.19302782E+03    0.00000000E+00    0.42832103E-04
    2   -0.19302782E+03   -0.50476956E-10    0.28276894E-04
    3   -0.19302782E+03   -0.16399326E-10    0.41567181E-05
 
Total Energy:                     -192.4965097912 H        -5238.0965 eV
Extrapolated to 0:                -192.4965097912 H        -5238.0965 eV
Total Mermin free energy:         -192.4965097912 H        -5238.0965 eV
Force related energy:             -192.4965097912 H        -5238.0965 eV

--------------------------------------------------------------------------------

***  Geometry step: 76

 iSCC Total electronic   Diff electronic      SCC error    
    1   -0.19302783E+03    0.00000000E+00    0.42588556E-04
    2   -0.19302783E+03   -0.20511948E-09    0.28466660E-04
    3   -0.19302783E+03   -0.85549345E-10    0.60695249E-05
 
Total Energy:                     -192.4965097875 H        -5238.0965 eV
Extrapolated to 0:                -192.4965097875 H        -5238.0965 eV
Total Mermin free energy:         -192.4965097875 H        -5238.0965 eV
Force related energy:             -192.4965097875 H        -5238.0965 eV

--------------------------------------------------------------------------------

***  Geometry step: 77

 iSCC Total electronic   Diff electronic      SCC error    
    1   -0.19302782E+03    0.00000000E+00    0.84245043E-04
    2   -0.19302782E+03   -0.77670848E-09    0.48758466E-04
    3   -0.19302782E+03   -0.33156766E-09    0.92533960E-05
 
Total Energy:                     -192.4965097959 H        -5238.0965 eV
Extrapolated to 0:                -192.4965097959 H        -5238.0965 eV
Total Mermin free energy:         -192.4965097959 H        -5238.0965 eV
Force related energy:             -192.4965097959 H        -5238.0965 eV

--------------------------------------------------------------------------------

***  Geometry step: 78

 iSCC Total electronic   Diff electronic      SCC error    
    1   -0.19302782E+03    0.00000000E+00    0.41687885E-04
    2   -0.19302782E+03   -0.25940494E-09    0.23063443E-04
    3   -0.19302782E+03   -0.98140163E-10    0.48185922E-05
 
Total Energy:                     -192.4965097900 H        -5238.0965 eV
Extrapolated to 0:                -192.4965097900 H        -5238.0965 eV
Total Mermin free energy:         -192.4965097900 H        -5238.0965 eV
Force related energy:             -192.4965097900 H        -5238.0965 eV

--------------------------------------------------------------------------------

***  Geometry step: 79

 iSCC Total electronic   Diff electronic      SCC error    
    1   -0.19302782E+03    0.00000000E+00    0.50669934E-04
    2   -0.19302782E+03   -0.91205266E-10    0.30373915E-04
    3   -0.19302782E+03   -0.24357405E-10    0.41755079E-05
 
Total Energy:                     -192.4965097960 H        -5238.0965 eV
Extrapolated to 0:                -192.4965097960 H        -5238.0965 eV
Total Mermin free energy:         -192.4965097960 H        -5238.0965 eV
Force related energy:             -192.4965097960 H        -5238.0965 eV

--------------------------------------------------------------------------------

***  Geometry step: 80

 iSCC Total electronic   Diff electronic      SCC error    
    1   -0.19302782E+03    0.00000000E+00    0.33612060E-04
    2   -0.19302782E+03   -0.51016968E-10    0.19842703E-04
    3   -0.19302782E+03   -0.13130830E-10    0.37323064E-05
 
Total Energy:                     -192.4965097968 H        -5238.0965 eV
Extrapolated to 0:                -192.4965097968 H        -5238.0965 eV
Total Mermin free energy:         -192.4965097968 H        -5238.0965 eV
Force related energy:             -192.4965097968 H        -5238.0965 eV

--------------------------------------------------------------------------------

***  Geometry step: 81

 iSCC Total electronic   Diff electronic      SCC error    
    1   -0.19302782E+03    0.00000000E+00    0.32230064E-04
    2   -0.19302782E+03   -0.28393288E-10    0.22753314E-04
    3   -0.19302782E+03   -0.10686563E-10    0.35837256E-05
 
Total Energy:                     -192.4965097893 H        -5238.0965 eV
Extrapolated to 0:                -192.4965097893 H        -5238.0965 eV
Total Mermin free energy:         -192.4965097893 H        -5238.0965 eV
Force related energy:             -192.4965097893 H        -5238.0965 eV

--------------------------------------------------------------------------------

***  Geometry step: 82

 iSCC Total electronic   Diff electronic      SCC error    
    1   -0.19302782E+03    0.00000000E+00    0.22180408E-04
    2   -0.19302782E+03   -0.17621460E-10    0.14699314E-04
    3   -0.19302782E+03   -0.66222583E-11    0.27095909E-05
 
Total Energy:                     -192.4965097978 H        -5238.0965 eV
Extrapolated to 0:                -192.4965097978 H        -5238.0965 eV
Total Mermin free energy:         -192.4965097978 H        -5238.0965 eV
Force related energy:             -192.4965097978 H        -5238.0965 eV

--------------------------------------------------------------------------------

***  Geometry step: 83

 iSCC Total electronic   Diff electronic      SCC error    
    1   -0.19302782E+03    0.00000000E+00    0.41779940E-04
    2   -0.19302782E+03   -0.34248160E-10    0.27897345E-04
    3   -0.19302782E+03   -0.13301360E-10    0.34662262E-05
 
Total Energy:                     -192.4965097884 H        -5238.0965 eV
Extrapolated to 0:                -192.4965097884 H        -5238.0965 eV
Total Mermin free energy:         -192.4965097884 H        -5238.0965 eV
Force related energy:             -192.4965097884 H        -5238.0965 eV

--------------------------------------------------------------------------------

***  Geometry step: 84

 iSCC Total electronic   Diff electronic      SCC error    
    1   -0.19302782E+03    0.00000000E+00    0.29312007E-04
    2   -0.19302782E+03   -0.76767037E-10    0.18658894E-04
    3   -0.19302782E+03   -0.33935521E-10    0.19790994E-05
 
Total Energy:                     -192.4965097873 H        -5238.0965 eV
Extrapolated to 0:                -192.4965097873 H        -5238.0965 eV
Total Mermin free energy:         -192.4965097873 H        -5238.0965 eV
Force related energy:             -192.4965097873 H        -5238.0965 eV

--------------------------------------------------------------------------------

***  Geometry step: 85

 iSCC Total electronic   Diff electronic      SCC error    
    1   -0.19302783E+03    0.00000000E+00    0.51968444E-04
    2   -0.19302783E+03   -0.24090241E-09    0.34766433E-04
    3   -0.19302783E+03   -0.10868462E-09    0.55098664E-05
 
Total Energy:                     -192.4965097976 H        -5238.0965 eV
Extrapolated to 0:                -192.4965097976 H        -5238.0965 eV
Total Mermin free energy:         -192.4965097976 H        -5238.0965 eV
Force related energy:             -192.4965097976 H        -5238.0965 eV

--------------------------------------------------------------------------------

***  Geometry step: 86

 iSCC Total electronic   Diff electronic      SCC error    
    1   -0.19302783E+03    0.00000000E+00    0.22603559E-04
    2   -0.19302783E+03   -0.27540636E-10    0.14944961E-04
    3   -0.19302783E+03   -0.95781161E-11    0.22716607E-05
 
Total Energy:                     -192.4965097927 H        -5238.0965 eV
Extrapolated to 0:                -192.4965097927 H        -5238.0965 eV
Total Mermin free energy:         -192.4965097927 H        -5238.0965 eV
Force related energy:             -192.4965097927 H        -5238.0965 eV

--------------------------------------------------------------------------------

***  Geometry step: 87

 iSCC Total electronic   Diff electronic      SCC error    
    1   -0.19302782E+03    0.00000000E+00    0.52532364E-04
    2   -0.19302782E+03   -0.27245051E-09    0.35641333E-04
    3   -0.19302782E+03   -0.12906298E-09    0.58702085E-05
 
Total Energy:                     -192.4965097920 H        -5238.0965 eV
Extrapolated to 0:                -192.4965097920 H        -5238.0965 eV
Total Mermin free energy:         -192.4965097920 H        -5238.0965 eV
Force related energy:             -192.4965097920 H        -5238.0965 eV

--------------------------------------------------------------------------------

***  Geometry step: 88

 iSCC Total electronic   Diff electronic      SCC error    
    1   -0.19302783E+03    0.00000000E+00    0.55994556E-04
    2   -0.19302783E+03   -0.35518610E-09    0.33229545E-04
    3   -0.19302783E+03   -0.15930368E-09    0.43622523E-05
 
Total Energy:                     -192.4965097965 H        -5238.0965 eV
Extrapolated to 0:                -192.4965097965 H        -5238.0965 eV
Total Mermin free energy:         -192.4965097965 H        -5238.0965 eV
Force related energy:             -192.4965097965 H        -5238.0965 eV

--------------------------------------------------------------------------------

***  Geometry step: 89

 iSCC Total electronic   Diff electronic      SCC error    
    1   -0.19302782E+03    0.00000000E+00    0.70390920E-04
    2   -0.19302782E+03   -0.44445869E-09    0.43714553E-04
    3   -0.19302782E+03   -0.18965807E-09    0.59511793E-05
 
Total Energy:                     -192.4965097884 H        -5238.0965 eV
Extrapolated to 0:                -192.4965097884 H        -5238.0965 eV
Total Mermin free energy:         -192.4965097884 H        -5238.0965 eV
Force related energy:             -192.4965097884 H        -5238.0965 eV

--------------------------------------------------------------------------------

***  Geometry step: 90

 iSCC Total electronic   Diff electronic      SCC error    
    1   -0.19302783E+03    0.00000000E+00    0.33496198E-04
    2   -0.19302783E+03   -0.20000357E-09    0.21013472E-04
    3   -0.19302783E+03   -0.10572876E-09    0.39090262E-05
 
Total Energy:                     -192.4965097987 H        -5238.0965 eV
Extrapolated to 0:                -192.4965097987 H        -5238.0965 eV
Total Mermin free energy:         -192.4965097987 H        -5238.0965 eV
Force related energy:             -192.4965097987 H        -5238.0965 eV

--------------------------------------------------------------------------------

***  Geometry step: 91

 iSCC Total electronic   Diff electronic      SCC error    
    1   -0.19302782E+03    0.00000000E+00    0.65968167E-04
    2   -0.19302782E+03   -0.34938807E-09    0.41662512E-04
    3   -0.19302782E+03   -0.22882318E-09    0.37509210E-05
 
Total Energy:                     -192.4965097835 H        -5238.0965 eV
Extrapolated to 0:                -192.4965097835 H        -5238.0965 eV
Total Mermin free energy:         -192.4965097835 H        -5238.0965 eV
Force related energy:             -192.4965097835 H        -5238.0965 eV

--------------------------------------------------------------------------------

***  Geometry step: 92

 iSCC Total electronic   Diff electronic      SCC error    
    1   -0.19302782E+03    0.00000000E+00    0.47873608E-04
    2   -0.19302782E+03   -0.19934987E-09    0.30128749E-04
    3   -0.19302782E+03   -0.12383339E-09    0.24855985E-05
 
Total Energy:                     -192.4965097924 H        -5238.0965 eV
Extrapolated to 0:                -192.4965097924 H        -5238.0965 eV
Total Mermin free energy:         -192.4965097924 H        -5238.0965 eV
Force related energy:             -192.4965097924 H        -5238.0965 eV

--------------------------------------------------------------------------------

***  Geometry step: 93

 iSCC Total electronic   Diff electronic      SCC error    
    1   -0.19302782E+03    0.00000000E+00    0.47714199E-04
    2   -0.19302782E+03   -0.13878321E-09    0.30571611E-04
    3   -0.19302782E+03   -0.66108896E-10    0.32796145E-05
 
Total Energy:                     -192.4965097932 H        -5238.0965 eV
Extrapolated to 0:                -192.4965097932 H        -5238.0965 eV
Total Mermin free energy:         -192.4965097932 H        -5238.0965 eV
Force related energy:             -192.4965097932 H        -5238.0965 eV

--------------------------------------------------------------------------------

***  Geometry step: 94

 iSCC Total electronic   Diff electronic      SCC error    
    1   -0.19302782E+03    0.00000000E+00    0.36389843E-04
    2   -0.19302782E+03   -0.10481926E-09    0.23930338E-04
    3   -0.19302782E+03   -0.58179239E-10    0.30231999E-05
 
Total Energy:                     -192.4965097898 H        -5238.0965 eV
Extrapolated to 0:                -192.4965097898 H        -5238.0965 eV
Total Mermin free energy:         -192.4965097898 H        -5238.0965 eV
Force related energy:             -192.4965097898 H        -5238.0965 eV

--------------------------------------------------------------------------------

***  Geometry step: 95

 iSCC Total electronic   Diff electronic      SCC error    
    1   -0.19302783E+03    0.00000000E+00    0.66069177E-04
    2   -0.19302783E+03   -0.44417447E-09    0.43938620E-04
    3   -0.19302783E+03   -0.24431301E-09    0.49330249E-05
 
Total Energy:                     -192.4965097927 H        -5238.0965 eV
Extrapolated to 0:                -192.4965097927 H        -5238.0965 eV
Total Mermin free energy:         -192.4965097927 H        -5238.0965 eV
Force related energy:             -192.4965097927 H        -5238.0965 eV

--------------------------------------------------------------------------------

***  Geometry step: 96

 iSCC Total electronic   Diff electronic      SCC error    
    1   -0.19302782E+03    0.00000000E+00    0.33437242E-04
    2   -0.19302782E+03   -0.18624746E-09    0.20585657E-04
    3   -0.19302782E+03   -0.97401198E-10    0.25955405E-05
 
Total Energy:                     -192.4965097911 H        -5238.0965 eV
Extrapolated to 0:                -192.4965097911 H        -5238.0965 eV
Total Mermin free energy:         -192.4965097911 H        -5238.0965 eV
Force related energy:             -192.4965097911 H        -5238.0965 eV

--------------------------------------------------------------------------------

***  Geometry step: 97

 iSCC Total electronic   Diff electronic      SCC error    
    1   -0.19302782E+03    0.00000000E+00    0.45434246E-04
    2   -0.19302782E+03   -0.15734258E-09    0.27778906E-04
    3   -0.19302782E+03   -0.77420736E-10    0.32277534E-05
 
Total Energy:                     -192.4965097941 H        -5238.0965 eV
Extrapolated to 0:                -192.4965097941 H        -5238.0965 eV
Total Mermin free energy:         -192.4965097941 H        -5238.0965 eV
Force related energy:             -192.4965097941 H        -5238.0965 eV

--------------------------------------------------------------------------------

***  Geometry step: 98

 iSCC Total electronic   Diff electronic      SCC error    
    1   -0.19302782E+03    0.00000000E+00    0.47831209E-04
    2   -0.19302782E+03   -0.21296387E-09    0.31684692E-04
    3   -0.19302782E+03   -0.10325607E-09    0.43929126E-05
 
Total Energy:                     -192.4965097876 H        -5238.0965 eV
Extrapolated to 0:                -192.4965097876 H        -5238.0965 eV
Total Mermin free energy:         -192.4965097876 H        -5238.0965 eV
Force related energy:             -192.4965097876 H        -5238.0965 eV

--------------------------------------------------------------------------------

***  Geometry step: 99

 iSCC Total electronic   Diff electronic      SCC error    
    1   -0.19302783E+03    0.00000000E+00    0.77086816E-04
    2   -0.19302783E+03   -0.49951154E-09    0.51021959E-04
    3   -0.19302783E+03   -0.26068392E-09    0.57409257E-05
 
Total Energy:                     -192.4965097952 H        -5238.0965 eV
Extrapolated to 0:                -192.4965097952 H        -5238.0965 eV
Total Mermin free energy:         -192.4965097952 H        -5238.0965 eV
Force related energy:             -192.4965097952 H        -5238.0965 eV

--------------------------------------------------------------------------------

***  Geometry step: 100

 iSCC Total electronic   Diff electronic      SCC error    
    1   -0.19302782E+03    0.00000000E+00    0.45601498E-04
    2   -0.19302782E+03   -0.25602276E-09    0.27808766E-04
    3   -0.19302782E+03   -0.13156409E-09    0.32195937E-05
 
Total Energy:                     -192.4965097899 H        -5238.0965 eV
Extrapolated to 0:                -192.4965097899 H        -5238.0965 eV
Total Mermin free energy:         -192.4965097899 H        -5238.0965 eV
Force related energy:             -192.4965097899 H        -5238.0965 eV

--------------------------------------------------------------------------------

***  Geometry step: 101

 iSCC Total electronic   Diff electronic      SCC error    
    1   -0.19302782E+03    0.00000000E+00    0.58830786E-04
    2   -0.19302782E+03   -0.33452352E-09    0.37229742E-04
    3   -0.19302782E+03   -0.21790925E-09    0.41912051E-05
 
Total Energy:                     -192.4965097924 H        -5238.0965 eV
Extrapolated to 0:                -192.4965097924 H        -5238.0965 eV
Total Mermin free energy:         -192.4965097924 H        -5238.0965 eV
Force related energy:             -192.4965097924 H        -5238.0965 eV

--------------------------------------------------------------------------------

***  Geometry step: 102

 iSCC Total electronic   Diff electronic      SCC error    
    1   -0.19302783E+03    0.00000000E+00    0.28317914E-04
    2   -0.19302783E+03   -0.13434942E-09    0.17889192E-04
    3   -0.19302783E+03   -0.90523145E-10    0.43622386E-05
 
Total Energy:                     -192.4965097938 H        -5238.0965 eV
Extrapolated to 0:                -192.4965097938 H        -5238.0965 eV
Total Mermin free energy:         -192.4965097938 H        -5238.0965 eV
Force related energy:             -192.4965097938 H        -5238.0965 eV

--------------------------------------------------------------------------------

***  Geometry step: 103

 iSCC Total electronic   Diff electronic      SCC error    
    1   -0.19302782E+03    0.00000000E+00    0.42366299E-04
    2   -0.19302782E+03   -0.20943958E-09    0.28424128E-04
    3   -0.19302782E+03   -0.14529178E-09    0.67533714E-05
 
Total Energy:                     -192.4965097884 H        -5238.0965 eV
Extrapolated to 0:                -192.4965097884 H        -5238.0965 eV
Total Mermin free energy:         -192.4965097884 H        -5238.0965 eV
Force related energy:             -192.4965097884 H        -5238.0965 eV

--------------------------------------------------------------------------------

***  Geometry step: 104

 iSCC Total electronic   Diff electronic      SCC error    
    1   -0.19302782E+03    0.00000000E+00    0.39384273E-04
    2   -0.19302782E+03   -0.13352519E-09    0.26361416E-04
    3   -0.19302782E+03   -0.96207486E-10    0.20098950E-05
 
Total Energy:                     -192.4965097887 H        -5238.0965 eV
Extrapolated to 0:                -192.4965097887 H        -5238.0965 eV
Total Mermin free energy:         -192.4965097887 H        -5238.0965 eV
Force related energy:             -192.4965097887 H        -5238.0965 eV

--------------------------------------------------------------------------------

***  Geometry step: 105

 iSCC Total electronic   Diff electronic      SCC error    
    1   -0.19302782E+03    0.00000000E+00    0.53333196E-04
    2   -0.19302782E+03   -0.22842528E-09    0.36002590E-04
    3   -0.19302782E+03   -0.17530510E-09    0.37801589E-05
 
Total Energy:                     -192.4965097924 H        -5238.0965 eV
Extrapolated to 0:                -192.4965097924 H        -5238.0965 eV
Total Mermin free energy:         -192.4965097924 H        -5238.0965 eV
Force related energy:             -192.4965097924 H        -5238.0965 eV

--------------------------------------------------------------------------------

***  Geometry step: 106

 iSCC Total electronic   Diff electronic      SCC error    
    1   -0.19302782E+03    0.00000000E+00    0.36743999E-04
    2   -0.19302782E+03   -0.12852297E-09    0.24505985E-04
    3   -0.19302782E+03   -0.85776719E-10    0.57250991E-05
 
Total Energy:                     -192.4965097891 H        -5238.0965 eV
Extrapolated to 0:                -192.4965097891 H        -5238.0965 eV
Total Mermin free energy:         -192.4965097891 H        -5238.0965 eV
Force related energy:             -192.4965097891 H        -5238.0965 eV

--------------------------------------------------------------------------------

***  Geometry step: 107

 iSCC Total electronic   Diff electronic      SCC error    
    1   -0.19302783E+03    0.00000000E+00    0.53104501E-04
    2   -0.19302783E+03   -0.25849545E-09    0.35530419E-04
    3   -0.19302783E+03   -0.17848834E-09    0.78125397E-05
 
Total Energy:                     -192.4965097935 H        -5238.0965 eV
Extrapolated to 0:                -192.4965097935 H        -5238.0965 eV
Total Mermin free energy:         -192.4965097935 H        -5238.0965 eV
Force related energy:             -192.4965097935 H        -5238.0965 eV

--------------------------------------------------------------------------------

***  Geometry step: 108

 iSCC Total electronic   Diff electronic      SCC error    
    1   -0.19302782E+03    0.00000000E+00    0.25653027E-04
    2   -0.19302782E+03   -0.87482022E-10    0.17354804E-04
    3   -0.19302782E+03   -0.51329607E-10    0.35073027E-05
 
Total Energy:                     -192.4965097925 H        -5238.0965 eV
Extrapolated to 0:                -192.4965097925 H        -5238.0965 eV
Total Mermin free energy:         -192.4965097925 H        -5238.0965 eV
Force related energy:             -192.4965097925 H        -5238.0965 eV

--------------------------------------------------------------------------------

***  Geometry step: 109

 iSCC Total electronic   Diff electronic      SCC error    
    1   -0.19302782E+03    0.00000000E+00    0.36952927E-04
    2   -0.19302782E+03   -0.53603344E-10    0.23383266E-04
    3   -0.19302782E+03   -0.20236257E-10    0.27365949E-05
 
Total Energy:                     -192.4965097935 H        -5238.0965 eV
Extrapolated to 0:                -192.4965097935 H        -5238.0965 eV
Total Mermin free energy:         -192.4965097935 H        -5238.0965 eV
Force related energy:             -192.4965097935 H        -5238.0965 eV

--------------------------------------------------------------------------------

***  Geometry step: 110

 iSCC Total electronic   Diff electronic      SCC error    
    1   -0.19302782E+03    0.00000000E+00    0.36751107E-04
    2   -0.19302782E+03   -0.15174351E-09    0.24596525E-04
    3   -0.19302782E+03   -0.71196382E-10    0.35921496E-05
 
Total Energy:                     -192.4965097891 H        -5238.0965 eV
Extrapolated to 0:                -192.4965097891 H        -5238.0965 eV
Total Mermin free energy:         -192.4965097891 H        -5238.0965 eV
Force related energy:             -192.4965097891 H        -5238.0965 eV

--------------------------------------------------------------------------------

***  Geometry step: 111

 iSCC Total electronic   Diff electronic      SCC error    
    1   -0.19302783E+03    0.00000000E+00    0.77936843E-04
    2   -0.19302783E+03   -0.72324724E-09    0.45562540E-04
    3   -0.19302783E+03   -0.33688252E-09    0.76343931E-05
 
Total Energy:                     -192.4965097936 H        -5238.0965 eV
Extrapolated to 0:                -192.4965097936 H        -5238.0965 eV
Total Mermin free energy:         -192.4965097936 H        -5238.0965 eV
Force related energy:             -192.4965097936 H        -5238.0965 eV

--------------------------------------------------------------------------------

***  Geometry step: 112

 iSCC Total electronic   Diff electronic      SCC error    
    1   -0.19302782E+03    0.00000000E+00    0.27676855E-04
    2   -0.19302782E+03   -0.11144152E-09    0.17485931E-04
    3   -0.19302782E+03   -0.45190518E-10    0.36301767E-05
 
Total Energy:                     -192.4965097938 H        -5238.0965 eV
Extrapolated to 0:                -192.4965097938 H        -5238.0965 eV
Total Mermin free energy:         -192.4965097938 H        -5238.0965 eV
Force related energy:             -192.4965097938 H        -5238.0965 eV

--------------------------------------------------------------------------------

***  Geometry step: 113

 iSCC Total electronic   Diff electronic      SCC error    
    1   -0.19302782E+03    0.00000000E+00    0.61905928E-04
    2   -0.19302782E+03   -0.17513457E-09    0.37559991E-04
    3   -0.19302782E+03   -0.73129058E-10    0.47632745E-05
 
Total Energy:                     -192.4965097920 H        -5238.0965 eV
Extrapolated to 0:                -192.4965097920 H        -5238.0965 eV
Total Mermin free energy:         -192.4965097920 H        -5238.0965 eV
Force related energy:             -192.4965097920 H        -5238.0965 eV

--------------------------------------------------------------------------------

***  Geometry step: 114

 iSCC Total electronic   Diff electronic      SCC error    
    1   -0.19302783E+03    0.00000000E+00    0.31926769E-04
    2   -0.19302783E+03   -0.14415491E-09    0.20675191E-04
    3   -0.19302783E+03   -0.75914386E-10    0.50095157E-05
 
Total Energy:                     -192.4965097940 H        -5238.0965 eV
Extrapolated to 0:                -192.4965097940 H        -5238.0965 eV
Total Mermin free energy:         -192.4965097940 H        -5238.0965 eV
Force related energy:             -192.4965097940 H        -5238.0965 eV

--------------------------------------------------------------------------------

***  Geometry step: 115

 iSCC Total electronic   Diff electronic      SCC error    
    1   -0.19302782E+03    0.00000000E+00    0.63421111E-04
    2   -0.19302782E+03   -0.39912607E-09    0.39925494E-04
    3   -0.19302782E+03   -0.23703706E-09    0.49455852E-05
 
Total Energy:                     -192.4965097890 H        -5238.0965 eV
Extrapolated to 0:                -192.4965097890 H        -5238.0965 eV
Total Mermin free energy:         -192.4965097890 H        -5238.0965 eV
Force related energy:             -192.4965097890 H        -5238.0965 eV

--------------------------------------------------------------------------------

***  Geometry step: 116

 iSCC Total electronic   Diff electronic      SCC error    
    1   -0.19302783E+03    0.00000000E+00    0.41565007E-04
    2   -0.19302783E+03   -0.20668267E-09    0.27211855E-04
    3   -0.19302783E+03   -0.11519319E-09    0.36474706E-05
 
Total Energy:                     -192.4965097922 H        -5238.0965 eV
Extrapolated to 0:                -192.4965097922 H        -5238.0965 eV
Total Mermin free energy:         -192.4965097922 H        -5238.0965 eV
Force related energy:             -192.4965097922 H        -5238.0965 eV

--------------------------------------------------------------------------------

***  Geometry step: 117

 iSCC Total electronic   Diff electronic      SCC error    
    1   -0.19302782E+03    0.00000000E+00    0.53093587E-04
    2   -0.19302782E+03   -0.12011014E-09    0.34984198E-04
    3   -0.19302782E+03   -0.54086513E-10    0.40254107E-05
 
Total Energy:                     -192.4965097932 H        -5238.0965 eV
Extrapolated to 0:                -192.4965097932 H        -5238.0965 eV
Total Mermin free energy:         -192.4965097932 H        -5238.0965 eV
Force related energy:             -192.4965097932 H        -5238.0965 eV

--------------------------------------------------------------------------------

***  Geometry step: 118

 iSCC Total electronic   Diff electronic      SCC error    
    1   -0.19302782E+03    0.00000000E+00    0.30359131E-04
    2   -0.19302782E+03   -0.10589929E-09    0.18531749E-04
    3   -0.19302782E+03   -0.56985527E-10    0.26438024E-05
 
Total Energy:                     -192.4965097878 H        -5238.0965 eV
Extrapolated to 0:                -192.4965097878 H        -5238.0965 eV
Total Mermin free energy:         -192.4965097878 H        -5238.0965 eV
Force related energy:             -192.4965097878 H        -5238.0965 eV

--------------------------------------------------------------------------------

***  Geometry step: 119

 iSCC Total electronic   Diff electronic      SCC error    
    1   -0.19302783E+03    0.00000000E+00    0.68757772E-04
    2   -0.19302783E+03   -0.43706905E-09    0.42470304E-04
    3   -0.19302783E+03   -0.24940050E-09    0.36250733E-05
 
Total Energy:                     -192.4965097942 H        -5238.0965 eV
Extrapolated to 0:                -192.4965097942 H        -5238.0965 eV
[...]
Total Mermin free energy:         -192.4965097893 H        -5238.0965 eV
Force related energy:             -192.4965097893 H        -5238.0965 eV

--------------------------------------------------------------------------------

***  Geometry step: 341

 iSCC Total electronic   Diff electronic      SCC error    
    1   -0.19302783E+03    0.00000000E+00    0.31535851E-04
    2   -0.19302783E+03   -0.10268764E-09    0.19490515E-04
    3   -0.19302783E+03   -0.56445515E-10    0.24010028E-05
 
Total Energy:                     -192.4965097960 H        -5238.0965 eV
Extrapolated to 0:                -192.4965097960 H        -5238.0965 eV
Total Mermin free energy:         -192.4965097960 H        -5238.0965 eV
Force related energy:             -192.4965097960 H        -5238.0965 eV

--------------------------------------------------------------------------------

***  Geometry step: 342

 iSCC Total electronic   Diff electronic      SCC error    
    1   -0.19302783E+03    0.00000000E+00    0.18105082E-04
    2   -0.19302783E+03   -0.45332627E-10    0.13633503E-04
    3   -0.19302783E+03   -0.31405989E-10    0.35080146E-05
 
Total Energy:                     -192.4965097933 H        -5238.0965 eV
Extrapolated to 0:                -192.4965097933 H        -5238.0965 eV
Total Mermin free energy:         -192.4965097933 H        -5238.0965 eV
Force related energy:             -192.4965097933 H        -5238.0965 eV

--------------------------------------------------------------------------------

***  Geometry step: 343

 iSCC Total electronic   Diff electronic      SCC error    
    1   -0.19302782E+03    0.00000000E+00    0.35826422E-04
    2   -0.19302782E+03   -0.10618351E-09    0.24757670E-04
    3   -0.19302782E+03   -0.72134299E-10    0.55852248E-05
 
Total Energy:                     -192.4965097895 H        -5238.0965 eV
Extrapolated to 0:                -192.4965097895 H        -5238.0965 eV
Total Mermin free energy:         -192.4965097895 H        -5238.0965 eV
Force related energy:             -192.4965097895 H        -5238.0965 eV

--------------------------------------------------------------------------------

***  Geometry step: 344

 iSCC Total electronic   Diff electronic      SCC error    
    1   -0.19302782E+03    0.00000000E+00    0.17701472E-04
    2   -0.19302782E+03   -0.26460611E-10    0.11602165E-04
    3   -0.19302782E+03   -0.16001422E-10    0.98613219E-06
 
Total Energy:                     -192.4965097946 H        -5238.0965 eV
Extrapolated to 0:                -192.4965097946 H        -5238.0965 eV
Total Mermin free energy:         -192.4965097946 H        -5238.0965 eV
Force related energy:             -192.4965097946 H        -5238.0965 eV

--------------------------------------------------------------------------------

***  Geometry step: 345

 iSCC Total electronic   Diff electronic      SCC error    
    1   -0.19302782E+03    0.00000000E+00    0.16168399E-04
    2   -0.19302782E+03   -0.59685590E-11    0.12141683E-04
    3   -0.19302782E+03   -0.40927262E-11    0.14817726E-05
 
Total Energy:                     -192.4965097927 H        -5238.0965 eV
Extrapolated to 0:                -192.4965097927 H        -5238.0965 eV
Total Mermin free energy:         -192.4965097927 H        -5238.0965 eV
Force related energy:             -192.4965097927 H        -5238.0965 eV

--------------------------------------------------------------------------------

***  Geometry step: 346

 iSCC Total electronic   Diff electronic      SCC error    
    1   -0.19302782E+03    0.00000000E+00    0.96520875E-05
 
Total Energy:                     -192.4965097934 H        -5238.0965 eV
Extrapolated to 0:                -192.4965097934 H        -5238.0965 eV
Total Mermin free energy:         -192.4965097934 H        -5238.0965 eV
Force related energy:             -192.4965097934 H        -5238.0965 eV

--------------------------------------------------------------------------------

***  Geometry step: 347

 iSCC Total electronic   Diff electronic      SCC error    
    1   -0.19302782E+03    0.00000000E+00    0.46133358E-05
 
Total Energy:                     -192.4965097935 H        -5238.0965 eV
Extrapolated to 0:                -192.4965097935 H        -5238.0965 eV
Total Mermin free energy:         -192.4965097935 H        -5238.0965 eV
Force related energy:             -192.4965097935 H        -5238.0965 eV

--------------------------------------------------------------------------------

***  Geometry step: 348

 iSCC Total electronic   Diff electronic      SCC error    
    1   -0.19302782E+03    0.00000000E+00    0.13117654E-04
    2   -0.19302782E+03   -0.16342483E-10    0.96508382E-05
 
Total Energy:                     -192.4965097900 H        -5238.0965 eV
Extrapolated to 0:                -192.4965097900 H        -5238.0965 eV
Total Mermin free energy:         -192.4965097900 H        -5238.0965 eV
Force related energy:             -192.4965097900 H        -5238.0965 eV

--------------------------------------------------------------------------------

***  Geometry step: 349

 iSCC Total electronic   Diff electronic      SCC error    
    1   -0.19302783E+03    0.00000000E+00    0.14515853E-04
    2   -0.19302783E+03   -0.18758328E-10    0.96609822E-05
 
Total Energy:                     -192.4965097958 H        -5238.0965 eV
Extrapolated to 0:                -192.4965097958 H        -5238.0965 eV
Total Mermin free energy:         -192.4965097958 H        -5238.0965 eV
Force related energy:             -192.4965097958 H        -5238.0965 eV

--------------------------------------------------------------------------------

***  Geometry step: 350

 iSCC Total electronic   Diff electronic      SCC error    
    1   -0.19302782E+03    0.00000000E+00    0.21466558E-04
    2   -0.19302782E+03   -0.22424729E-10    0.15958056E-04
    3   -0.19302782E+03   -0.13528734E-10    0.32286268E-05
 
Total Energy:                     -192.4965097906 H        -5238.0965 eV
Extrapolated to 0:                -192.4965097906 H        -5238.0965 eV
Total Mermin free energy:         -192.4965097906 H        -5238.0965 eV
Force related energy:             -192.4965097906 H        -5238.0965 eV

--------------------------------------------------------------------------------

***  Geometry step: 351

 iSCC Total electronic   Diff electronic      SCC error    
    1   -0.19302783E+03    0.00000000E+00    0.31876285E-04
    2   -0.19302783E+03   -0.75743856E-10    0.23589839E-04
    3   -0.19302783E+03   -0.42120973E-10    0.57843533E-05
 
Total Energy:                     -192.4965097945 H        -5238.0965 eV
Extrapolated to 0:                -192.4965097945 H        -5238.0965 eV
Total Mermin free energy:         -192.4965097945 H        -5238.0965 eV
Force related energy:             -192.4965097945 H        -5238.0965 eV

--------------------------------------------------------------------------------

***  Geometry step: 352

 iSCC Total electronic   Diff electronic      SCC error    
    1   -0.19302782E+03    0.00000000E+00    0.23535694E-04
    2   -0.19302782E+03   -0.50278004E-10    0.15491738E-04
    3   -0.19302782E+03   -0.29160674E-10    0.32265422E-05
 
Total Energy:                     -192.4965097924 H        -5238.0965 eV
Extrapolated to 0:                -192.4965097924 H        -5238.0965 eV
Total Mermin free energy:         -192.4965097924 H        -5238.0965 eV
Force related energy:             -192.4965097924 H        -5238.0965 eV

--------------------------------------------------------------------------------

***  Geometry step: 353

 iSCC Total electronic   Diff electronic      SCC error    
    1   -0.19302783E+03    0.00000000E+00    0.20386443E-04
    2   -0.19302783E+03   -0.33764991E-10    0.13570606E-04
    3   -0.19302783E+03   -0.21003643E-10    0.17172215E-05
 
Total Energy:                     -192.4965097938 H        -5238.0965 eV
Extrapolated to 0:                -192.4965097938 H        -5238.0965 eV
Total Mermin free energy:         -192.4965097938 H        -5238.0965 eV
Force related energy:             -192.4965097938 H        -5238.0965 eV

--------------------------------------------------------------------------------

***  Geometry step: 354

 iSCC Total electronic   Diff electronic      SCC error    
    1   -0.19302782E+03    0.00000000E+00    0.10185103E-04
    2   -0.19302782E+03   -0.90096819E-11    0.67876521E-05
 
Total Energy:                     -192.4965097906 H        -5238.0965 eV
Extrapolated to 0:                -192.4965097906 H        -5238.0965 eV
Total Mermin free energy:         -192.4965097906 H        -5238.0965 eV
Force related energy:             -192.4965097906 H        -5238.0965 eV

--------------------------------------------------------------------------------

***  Geometry step: 355

 iSCC Total electronic   Diff electronic      SCC error    
    1   -0.19302782E+03    0.00000000E+00    0.51684393E-05
 
Total Energy:                     -192.4965097967 H        -5238.0965 eV
Extrapolated to 0:                -192.4965097967 H        -5238.0965 eV
Total Mermin free energy:         -192.4965097967 H        -5238.0965 eV
Force related energy:             -192.4965097967 H        -5238.0965 eV

--------------------------------------------------------------------------------

***  Geometry step: 356

 iSCC Total electronic   Diff electronic      SCC error    
    1   -0.19302782E+03    0.00000000E+00    0.11535959E-04
    2   -0.19302782E+03   -0.67075234E-11    0.85583596E-05
 
Total Energy:                     -192.4965097942 H        -5238.0965 eV
Extrapolated to 0:                -192.4965097942 H        -5238.0965 eV
Total Mermin free energy:         -192.4965097942 H        -5238.0965 eV
Force related energy:             -192.4965097942 H        -5238.0965 eV

--------------------------------------------------------------------------------

***  Geometry step: 357

 iSCC Total electronic   Diff electronic      SCC error    
    1   -0.19302782E+03    0.00000000E+00    0.83792370E-05
 
Total Energy:                     -192.4965097931 H        -5238.0965 eV
Extrapolated to 0:                -192.4965097931 H        -5238.0965 eV
Total Mermin free energy:         -192.4965097931 H        -5238.0965 eV
Force related energy:             -192.4965097931 H        -5238.0965 eV

--------------------------------------------------------------------------------

***  Geometry step: 358

 iSCC Total electronic   Diff electronic      SCC error    
    1   -0.19302783E+03    0.00000000E+00    0.22120662E-04
    2   -0.19302783E+03   -0.37061909E-10    0.14467804E-04
    3   -0.19302783E+03   -0.27398528E-10    0.29112509E-05
 
Total Energy:                     -192.4965097933 H        -5238.0965 eV
Extrapolated to 0:                -192.4965097933 H        -5238.0965 eV
Total Mermin free energy:         -192.4965097933 H        -5238.0965 eV
Force related energy:             -192.4965097933 H        -5238.0965 eV

--------------------------------------------------------------------------------

***  Geometry step: 359

 iSCC Total electronic   Diff electronic      SCC error    
    1   -0.19302782E+03    0.00000000E+00    0.38197941E-04
    2   -0.19302782E+03   -0.11678480E-09    0.24907606E-04
    3   -0.19302782E+03   -0.82280849E-10    0.55801927E-05
 
Total Energy:                     -192.4965097892 H        -5238.0965 eV
Extrapolated to 0:                -192.4965097892 H        -5238.0965 eV
Total Mermin free energy:         -192.4965097892 H        -5238.0965 eV
Force related energy:             -192.4965097892 H        -5238.0965 eV

--------------------------------------------------------------------------------

***  Geometry step: 360

 iSCC Total electronic   Diff electronic      SCC error    
    1   -0.19302782E+03    0.00000000E+00    0.20082823E-04
    2   -0.19302782E+03   -0.62385652E-10    0.13174645E-04
    3   -0.19302782E+03   -0.32912340E-10    0.28046478E-05
 
Total Energy:                     -192.4965097952 H        -5238.0965 eV
Extrapolated to 0:                -192.4965097952 H        -5238.0965 eV
Total Mermin free energy:         -192.4965097952 H        -5238.0965 eV
Force related energy:             -192.4965097952 H        -5238.0965 eV

--------------------------------------------------------------------------------

***  Geometry step: 361

 iSCC Total electronic   Diff electronic      SCC error    
    1   -0.19302783E+03    0.00000000E+00    0.39041854E-04
    2   -0.19302783E+03   -0.13943691E-09    0.22283425E-04
    3   -0.19302783E+03   -0.51159077E-10    0.38810750E-05
 
Total Energy:                     -192.4965097913 H        -5238.0965 eV
Extrapolated to 0:                -192.4965097913 H        -5238.0965 eV
Total Mermin free energy:         -192.4965097913 H        -5238.0965 eV
Force related energy:             -192.4965097913 H        -5238.0965 eV

--------------------------------------------------------------------------------

***  Geometry step: 362

 iSCC Total electronic   Diff electronic      SCC error    
    1   -0.19302782E+03    0.00000000E+00    0.19231741E-04
    2   -0.19302782E+03   -0.44082071E-10    0.10502127E-04
    3   -0.19302782E+03   -0.15347723E-10    0.16423861E-05
 
Total Energy:                     -192.4965097933 H        -5238.0965 eV
Extrapolated to 0:                -192.4965097933 H        -5238.0965 eV
Total Mermin free energy:         -192.4965097933 H        -5238.0965 eV
Force related energy:             -192.4965097933 H        -5238.0965 eV

--------------------------------------------------------------------------------

***  Geometry step: 363

 iSCC Total electronic   Diff electronic      SCC error    
    1   -0.19302782E+03    0.00000000E+00    0.37058466E-05
 
Total Energy:                     -192.4965097941 H        -5238.0965 eV
Extrapolated to 0:                -192.4965097941 H        -5238.0965 eV
Total Mermin free energy:         -192.4965097941 H        -5238.0965 eV
Force related energy:             -192.4965097941 H        -5238.0965 eV

--------------------------------------------------------------------------------

***  Geometry step: 364

 iSCC Total electronic   Diff electronic      SCC error    
    1   -0.19302782E+03    0.00000000E+00    0.38258500E-04
    2   -0.19302782E+03   -0.11672796E-09    0.22503594E-04
    3   -0.19302782E+03   -0.45929482E-10    0.36100541E-05
 
Total Energy:                     -192.4965097921 H        -5238.0965 eV
Extrapolated to 0:                -192.4965097921 H        -5238.0965 eV
Total Mermin free energy:         -192.4965097921 H        -5238.0965 eV
Force related energy:             -192.4965097921 H        -5238.0965 eV

--------------------------------------------------------------------------------

***  Geometry step: 365

 iSCC Total electronic   Diff electronic      SCC error    
    1   -0.19302783E+03    0.00000000E+00    0.76772134E-04
    2   -0.19302783E+03   -0.54734528E-09    0.43949343E-04
    3   -0.19302783E+03   -0.20850166E-09    0.66351766E-05
 
Total Energy:                     -192.4965097916 H        -5238.0965 eV
Extrapolated to 0:                -192.4965097916 H        -5238.0965 eV
Total Mermin free energy:         -192.4965097916 H        -5238.0965 eV
Force related energy:             -192.4965097916 H        -5238.0965 eV

--------------------------------------------------------------------------------

***  Geometry step: 366

 iSCC Total electronic   Diff electronic      SCC error    
    1   -0.19302782E+03    0.00000000E+00    0.34915057E-04
    2   -0.19302782E+03   -0.20779112E-09    0.18942538E-04
    3   -0.19302782E+03   -0.67558403E-10    0.45979693E-05
 
Total Energy:                     -192.4965097923 H        -5238.0965 eV
Extrapolated to 0:                -192.4965097923 H        -5238.0965 eV
Total Mermin free energy:         -192.4965097923 H        -5238.0965 eV
Force related energy:             -192.4965097923 H        -5238.0965 eV

--------------------------------------------------------------------------------

***  Geometry step: 367

 iSCC Total electronic   Diff electronic      SCC error    
    1   -0.19302783E+03    0.00000000E+00    0.39568422E-04
    2   -0.19302783E+03   -0.15242563E-09    0.22524908E-04
    3   -0.19302783E+03   -0.55962346E-10    0.39131165E-05
 
Total Energy:                     -192.4965097941 H        -5238.0965 eV
Extrapolated to 0:                -192.4965097941 H        -5238.0965 eV
Total Mermin free energy:         -192.4965097941 H        -5238.0965 eV
Force related energy:             -192.4965097941 H        -5238.0965 eV

--------------------------------------------------------------------------------

***  Geometry step: 368

 iSCC Total electronic   Diff electronic      SCC error    
    1   -0.19302782E+03    0.00000000E+00    0.17955288E-04
    2   -0.19302782E+03   -0.39733550E-10    0.97609189E-05
 
Total Energy:                     -192.4965097949 H        -5238.0965 eV
Extrapolated to 0:                -192.4965097949 H        -5238.0965 eV
Total Mermin free energy:         -192.4965097949 H        -5238.0965 eV
Force related energy:             -192.4965097949 H        -5238.0965 eV

--------------------------------------------------------------------------------

***  Geometry step: 369

 iSCC Total electronic   Diff electronic      SCC error    
    1   -0.19302782E+03    0.00000000E+00    0.11911998E-04
    2   -0.19302782E+03   -0.16541435E-10    0.67808511E-05
 
Total Energy:                     -192.4965097925 H        -5238.0965 eV
Extrapolated to 0:                -192.4965097925 H        -5238.0965 eV
Total Mermin free energy:         -192.4965097925 H        -5238.0965 eV
Force related energy:             -192.4965097925 H        -5238.0965 eV

--------------------------------------------------------------------------------

***  Geometry step: 370

 iSCC Total electronic   Diff electronic      SCC error    
    1   -0.19302782E+03    0.00000000E+00    0.44028841E-04
    2   -0.19302782E+03   -0.16282797E-09    0.25640747E-04
    3   -0.19302782E+03   -0.63010930E-10    0.40661263E-05
 
Total Energy:                     -192.4965097919 H        -5238.0965 eV
Extrapolated to 0:                -192.4965097919 H        -5238.0965 eV
Total Mermin free energy:         -192.4965097919 H        -5238.0965 eV
Force related energy:             -192.4965097919 H        -5238.0965 eV

--------------------------------------------------------------------------------

***  Geometry step: 371

 iSCC Total electronic   Diff electronic      SCC error    
    1   -0.19302783E+03    0.00000000E+00    0.75162836E-04
    2   -0.19302783E+03   -0.52909854E-09    0.42905124E-04
    3   -0.19302783E+03   -0.19892354E-09    0.66759452E-05
 
Total Energy:                     -192.4965097919 H        -5238.0965 eV
Extrapolated to 0:                -192.4965097919 H        -5238.0965 eV
Total Mermin free energy:         -192.4965097919 H        -5238.0965 eV
Force related energy:             -192.4965097919 H        -5238.0965 eV

Second derivatives completed
Hessian matrix written to hessian.out
 
--------------------------------------------------------------------------------
DFTB+ running times                          cpu [s]             wall clock [s]
--------------------------------------------------------------------------------
Pre-SCC initialisation                 +     1.23  (  1.9%)      1.23  (  1.8%)
SCC                                    +    54.34  ( 85.4%)     59.11  ( 86.4%)
Post-SCC processing                    +     8.03  ( 12.6%)      8.03  ( 11.7%)
--------------------------------------------------------------------------------
Missing                                +     0.04  (  0.1%)      0.04  (  0.1%)
Total                                  =    63.64  (100.0%)     68.42  (100.0%)
--------------------------------------------------------------------------------
