|===============================================================================
|
|  DFTB+ release 19.1
|
|  Copyright (C) 2006 - 2019  DFTB+ developers group
|
|===============================================================================
|
|  When publishing results obtained with DFTB+, please cite the following
|  reference:
|
|  * B. Aradi, B. Hourahine and T. Frauenheim,
|    DFTB+, a Sparse Matrix-Based Implementation of the DFTB Method,
|    J. Phys. Chem. A, 111 5678 (2007).  [doi: 10.1021/jp070186p]
|
|  You should also cite additional publications crediting the parametrization
|  data you use. Please consult the documentation of the SK-files for the
|  references.
|
|===============================================================================

Reading input file 'dftb_in.hsd'
Parser version: 7

--------------------------------------------------------------------------------
***  Converting input from version  4 to version  7 ...
WARNING!
-> Adding legacy step size for finite difference differentiation
Path: dftbplusinput/Hamiltonian/DFTB/Differentiation

***  Done.

Reading SK-files:
Done.


Processed input in HSD format written to 'dftb_pin.hsd'

Starting initialization...
--------------------------------------------------------------------------------
MPI processes:               12
OpenMP threads:              1
BLACS orbital grid size:     3 x 4
BLACS atom grid size:        2 x 2
Chosen random seed:          704150282
Mode:                        Conjugate gradient relaxation
Self consistent charges:     Yes
SCC-tolerance:                 0.100000E-04
Max. scc iterations:                    100
Shell resolved Hubbard:      No
Spin polarisation:           No
Nr. of up electrons:           178.000000
Nr. of down electrons:         178.000000
Periodic boundaries:         No
Electronic solver:           Relatively robust
Mixer:                       Broyden mixer
Mixing parameter:                  0.200000
Maximal SCC-cycles:                     100
Nr. of chrg. vec. in memory:              0
Nr. of moved atoms:                      62
Max. nr. of geometry steps:             500
Force tolerance:               0.100000E-03
Electronic temperature:        0.100000E-07 H      0.272114E-06 eV
Initial charges:             Set automatically (system chrg:   0.000E+00)
Included shells:            Si:  s, p, d
                             F:  s, p
Using Lennard-Jones dispersion corrections
Extra options:
                             Mulliken analysis
Force type                   original

--------------------------------------------------------------------------------

***  Geometry step: 0

 iSCC Total electronic   Diff electronic      SCC error    
    1   -0.19127076E+03    0.00000000E+00    0.17023237E+01
    2   -0.19204997E+03   -0.77920945E+00    0.13340546E+01
    3   -0.19238096E+03   -0.33099520E+00    0.54425043E+00
    4   -0.19245195E+03   -0.70982857E-01    0.24299109E+00
    5   -0.19246703E+03   -0.15088161E-01    0.14025298E+00
    6   -0.19247601E+03   -0.89766753E-02    0.25246515E-01
    7   -0.19247679E+03   -0.78261185E-03    0.58796254E-02
    8   -0.19247681E+03   -0.19418752E-04    0.20127626E-02
    9   -0.19247681E+03   -0.21209487E-06    0.50873905E-03
   10   -0.19247681E+03   -0.29248687E-06    0.14516884E-03
   11   -0.19247681E+03   -0.18539168E-07    0.45828636E-04
   12   -0.19247681E+03   -0.77932327E-10    0.10814864E-04
   13   -0.19247681E+03   -0.11880275E-09    0.47540563E-05
 
Total Energy:                     -191.9521340694 H        -5223.2833 eV
Extrapolated to 0:                -191.9521340694 H        -5223.2833 eV
Total Mermin free energy:         -191.9521340694 H        -5223.2833 eV
Force related energy:             -191.9521340694 H        -5223.2833 eV
Maximal force component:             0.108253E+00
>> Charges saved for restart in charges.bin

--------------------------------------------------------------------------------

***  Geometry step: 1

 iSCC Total electronic   Diff electronic      SCC error    
    1   -0.19302286E+03    0.00000000E+00    0.32814074E+00
    2   -0.19302891E+03   -0.60497736E-02    0.22427216E+00
    3   -0.19303066E+03   -0.17502115E-02    0.78085450E-01
    4   -0.19303103E+03   -0.37282525E-03    0.56234819E-02
    5   -0.19303105E+03   -0.17274783E-04    0.32773441E-02
    6   -0.19303105E+03   -0.60543485E-06    0.10098679E-02
    7   -0.19303105E+03   -0.21411182E-06    0.21688841E-03
    8   -0.19303105E+03   -0.12159603E-07    0.40274954E-04
    9   -0.19303105E+03   -0.83161922E-10    0.23901687E-04
   10   -0.19303105E+03   -0.49880100E-10    0.40698987E-05
 
Total Energy:                     -192.2978492670 H        -5232.6907 eV
Extrapolated to 0:                -192.2978492670 H        -5232.6907 eV
Total Mermin free energy:         -192.2978492670 H        -5232.6907 eV
Force related energy:             -192.2978492670 H        -5232.6907 eV
Maximal force component:             0.446839E-01
>> Charges saved for restart in charges.bin

--------------------------------------------------------------------------------

***  Geometry step: 2

 iSCC Total electronic   Diff electronic      SCC error    
    1   -0.19295144E+03    0.00000000E+00    0.57693292E-01
    2   -0.19295169E+03   -0.25745404E-03    0.38748475E-01
    3   -0.19295177E+03   -0.76166213E-04    0.14695793E-01
    4   -0.19295178E+03   -0.10778425E-04    0.11182860E-02
    5   -0.19295178E+03   -0.56585606E-06    0.28543283E-03
    6   -0.19295178E+03   -0.10849817E-07    0.19663954E-03
    7   -0.19295178E+03   -0.91069978E-08    0.39966498E-04
    8   -0.19295178E+03   -0.41109161E-09    0.70866794E-05
 
Total Energy:                     -192.3029768118 H        -5232.8302 eV
Extrapolated to 0:                -192.3029768118 H        -5232.8302 eV
Total Mermin free energy:         -192.3029768118 H        -5232.8302 eV
Force related energy:             -192.3029768118 H        -5232.8302 eV
Maximal force component:             0.249007E-01
>> Charges saved for restart in charges.bin

--------------------------------------------------------------------------------

***  Geometry step: 3

 iSCC Total electronic   Diff electronic      SCC error    
    1   -0.19301545E+03    0.00000000E+00    0.27773163E+00
    2   -0.19301859E+03   -0.31393450E-02    0.19023363E+00
    3   -0.19302020E+03   -0.16162657E-02    0.36698706E-01
    4   -0.19302032E+03   -0.11963987E-03    0.76706059E-02
    5   -0.19302033E+03   -0.88204946E-05    0.22871655E-02
    6   -0.19302033E+03   -0.86057460E-06    0.78511975E-03
    7   -0.19302033E+03   -0.12803235E-06    0.16063406E-03
    8   -0.19302033E+03   -0.13628096E-07    0.61406753E-04
    9   -0.19302033E+03   -0.49169557E-09    0.22655582E-04
   10   -0.19302033E+03   -0.15177193E-09    0.57541685E-05
 
Total Energy:                     -192.2716922547 H        -5231.9789 eV
Extrapolated to 0:                -192.2716922547 H        -5231.9789 eV
Total Mermin free energy:         -192.2716922547 H        -5231.9789 eV
Force related energy:             -192.2716922547 H        -5231.9789 eV
Maximal force component:             0.894936E-01
>> Charges saved for restart in charges.bin

--------------------------------------------------------------------------------

***  Geometry step: 4

 iSCC Total electronic   Diff electronic      SCC error    
    1   -0.19298308E+03    0.00000000E+00    0.17635063E+00
    2   -0.19298426E+03   -0.11815476E-02    0.11863383E+00
    3   -0.19298484E+03   -0.58252689E-03    0.21349111E-01
    4   -0.19298488E+03   -0.42448153E-04    0.40240536E-02
    5   -0.19298489E+03   -0.41065636E-05    0.13121632E-02
    6   -0.19298489E+03   -0.97559365E-07    0.35937676E-03
    7   -0.19298489E+03   -0.48210239E-07    0.97125546E-04
    8   -0.19298489E+03   -0.38608619E-08    0.18738060E-04
    9   -0.19298489E+03   -0.17536195E-09    0.87778447E-05
 
Total Energy:                     -192.3310501079 H        -5233.5942 eV
Extrapolated to 0:                -192.3310501079 H        -5233.5942 eV
Total Mermin free energy:         -192.3310501079 H        -5233.5942 eV
Force related energy:             -192.3310501079 H        -5233.5942 eV
Maximal force component:             0.368151E-01
>> Charges saved for restart in charges.bin

--------------------------------------------------------------------------------

***  Geometry step: 5

 iSCC Total electronic   Diff electronic      SCC error    
    1   -0.19302510E+03    0.00000000E+00    0.37258370E-01
    2   -0.19302556E+03   -0.45739230E-03    0.18342112E-01
    3   -0.19302570E+03   -0.14311179E-03    0.53535161E-02
    4   -0.19302570E+03   -0.55061351E-05    0.18036871E-02
    5   -0.19302570E+03   -0.41828642E-06    0.32934810E-03
    6   -0.19302570E+03   -0.18751592E-07    0.13617167E-03
    7   -0.19302570E+03   -0.84200451E-08    0.32011629E-04
    8   -0.19302570E+03   -0.57070793E-09    0.93628643E-05
 
Total Energy:                     -192.3631599062 H        -5234.4679 eV
Extrapolated to 0:                -192.3631599062 H        -5234.4679 eV
Total Mermin free energy:         -192.3631599062 H        -5234.4679 eV
Force related energy:             -192.3631599062 H        -5234.4679 eV
Maximal force component:             0.240174E-01
>> Charges saved for restart in charges.bin

--------------------------------------------------------------------------------

***  Geometry step: 6

 iSCC Total electronic   Diff electronic      SCC error    
    1   -0.19307514E+03    0.00000000E+00    0.63361728E-01
    2   -0.19307649E+03   -0.13508126E-02    0.30508932E-01
    3   -0.19307689E+03   -0.40479932E-03    0.90768036E-02
    4   -0.19307691E+03   -0.15768565E-04    0.31209588E-02
    5   -0.19307691E+03   -0.13048462E-05    0.61739639E-03
    6   -0.19307691E+03   -0.46341967E-07    0.28907549E-03
    7   -0.19307691E+03   -0.28355572E-07    0.66575749E-04
    8   -0.19307691E+03   -0.20063737E-08    0.17904103E-04
    9   -0.19307691E+03   -0.71366912E-10    0.23612425E-05
 
Total Energy:                     -192.3781551647 H        -5234.8759 eV
Extrapolated to 0:                -192.3781551647 H        -5234.8759 eV
Total Mermin free energy:         -192.3781551647 H        -5234.8759 eV
Force related energy:             -192.3781551647 H        -5234.8759 eV
Maximal force component:             0.515655E-01
>> Charges saved for restart in charges.bin

--------------------------------------------------------------------------------

***  Geometry step: 7

 iSCC Total electronic   Diff electronic      SCC error    
    1   -0.19306936E+03    0.00000000E+00    0.11018798E-01
    2   -0.19306940E+03   -0.40723918E-04    0.53122791E-02
    3   -0.19306942E+03   -0.12417927E-04    0.15576715E-02
    4   -0.19306942E+03   -0.48033502E-06    0.56608523E-03
    5   -0.19306942E+03   -0.37470272E-07    0.75246055E-04
    6   -0.19306942E+03   -0.16790125E-08    0.52305004E-04
    7   -0.19306942E+03   -0.76704509E-09    0.11411213E-04
    8   -0.19306942E+03   -0.60083494E-10    0.30104491E-05
 
Total Energy:                     -192.3788336469 H        -5234.8944 eV
Extrapolated to 0:                -192.3788336469 H        -5234.8944 eV
Total Mermin free energy:         -192.3788336469 H        -5234.8944 eV
Force related energy:             -192.3788336469 H        -5234.8944 eV
Maximal force component:             0.437815E-01
>> Charges saved for restart in charges.bin

--------------------------------------------------------------------------------

***  Geometry step: 8

 iSCC Total electronic   Diff electronic      SCC error    
    1   -0.19298548E+03    0.00000000E+00    0.15707662E+00
    2   -0.19298627E+03   -0.79234822E-03    0.11044079E+00
    3   -0.19298666E+03   -0.39286363E-03    0.12671640E-01
    4   -0.19298670E+03   -0.32774567E-04    0.42422743E-02
    5   -0.19298670E+03   -0.34309026E-05    0.76465761E-03
    6   -0.19298670E+03   -0.10611112E-06    0.59982624E-03
    7   -0.19298670E+03   -0.34401722E-07    0.10414452E-03
    8   -0.19298670E+03   -0.30159981E-08    0.15983418E-04
    9   -0.19298670E+03   -0.10564349E-09    0.26886720E-05
 
Total Energy:                     -192.4160081330 H        -5235.9060 eV
Extrapolated to 0:                -192.4160081330 H        -5235.9060 eV
Total Mermin free energy:         -192.4160081330 H        -5235.9060 eV
Force related energy:             -192.4160081330 H        -5235.9060 eV
Maximal force component:             0.217790E-01
>> Charges saved for restart in charges.bin

--------------------------------------------------------------------------------

***  Geometry step: 9

 iSCC Total electronic   Diff electronic      SCC error    
    1   -0.19298885E+03    0.00000000E+00    0.33108971E-02
    2   -0.19298885E+03   -0.37025484E-06    0.23417990E-02
    3   -0.19298885E+03   -0.18180154E-06    0.28071860E-03
    4   -0.19298885E+03   -0.16480641E-07    0.88933474E-04
    5   -0.19298885E+03   -0.17082016E-08    0.15407834E-04
    6   -0.19298885E+03   -0.56076033E-10    0.86104210E-05
 
Total Energy:                     -192.4160290579 H        -5235.9066 eV
Extrapolated to 0:                -192.4160290579 H        -5235.9066 eV
Total Mermin free energy:         -192.4160290579 H        -5235.9066 eV
Force related energy:             -192.4160290579 H        -5235.9066 eV
Maximal force component:             0.214073E-01
>> Charges saved for restart in charges.bin

--------------------------------------------------------------------------------

***  Geometry step: 10

 iSCC Total electronic   Diff electronic      SCC error    
    1   -0.19297653E+03    0.00000000E+00    0.78815025E-01
    2   -0.19297728E+03   -0.74539292E-03    0.54095987E-01
    3   -0.19297763E+03   -0.35425251E-03    0.75722163E-02
    4   -0.19297765E+03   -0.11941383E-04    0.38157715E-02
    5   -0.19297765E+03   -0.15972281E-05    0.37424071E-03
    6   -0.19297765E+03   -0.23668804E-07    0.22903162E-03
    7   -0.19297765E+03   -0.18387595E-07    0.44515605E-04
    8   -0.19297765E+03   -0.15094770E-09    0.44287955E-05
 
Total Energy:                     -192.4423665440 H        -5236.6232 eV
Extrapolated to 0:                -192.4423665440 H        -5236.6232 eV
Total Mermin free energy:         -192.4423665440 H        -5236.6232 eV
Force related energy:             -192.4423665440 H        -5236.6232 eV
Maximal force component:             0.317670E-01
>> Charges saved for restart in charges.bin

--------------------------------------------------------------------------------

***  Geometry step: 11

 iSCC Total electronic   Diff electronic      SCC error    
    1   -0.19297772E+03    0.00000000E+00    0.26905952E-03
    2   -0.19297772E+03   -0.83857401E-08    0.18405048E-03
    3   -0.19297772E+03   -0.39488839E-08    0.25232973E-04
    4   -0.19297772E+03   -0.13554313E-09    0.12478525E-04
    5   -0.19297772E+03   -0.16569857E-10    0.11954980E-05
 
Total Energy:                     -192.4423669282 H        -5236.6232 eV
Extrapolated to 0:                -192.4423669282 H        -5236.6232 eV
Total Mermin free energy:         -192.4423669282 H        -5236.6232 eV
Force related energy:             -192.4423669282 H        -5236.6232 eV
Maximal force component:             0.316823E-01
>> Charges saved for restart in charges.bin

--------------------------------------------------------------------------------

***  Geometry step: 12

 iSCC Total electronic   Diff electronic      SCC error    
    1   -0.19301227E+03    0.00000000E+00    0.76006526E-01
    2   -0.19301358E+03   -0.13096621E-02    0.45413867E-01
    3   -0.19301415E+03   -0.56990423E-03    0.73515187E-02
    4   -0.19301420E+03   -0.53992061E-04    0.42636343E-02
    5   -0.19301421E+03   -0.29515368E-05    0.13377621E-02
    6   -0.19301421E+03   -0.12725175E-06    0.57532501E-03
    7   -0.19301421E+03   -0.55719340E-07    0.11273080E-03
    8   -0.19301421E+03   -0.38586165E-08    0.39154134E-04
    9   -0.19301421E+03   -0.85805141E-10    0.50116618E-05
 
Total Energy:                     -192.4572945046 H        -5237.0294 eV
Extrapolated to 0:                -192.4572945046 H        -5237.0294 eV
Total Mermin free energy:         -192.4572945046 H        -5237.0294 eV
Force related energy:             -192.4572945046 H        -5237.0294 eV
Maximal force component:             0.317742E-01
>> Charges saved for restart in charges.bin

--------------------------------------------------------------------------------

***  Geometry step: 13

 iSCC Total electronic   Diff electronic      SCC error    
    1   -0.19300606E+03    0.00000000E+00    0.21725964E-01
    2   -0.19300617E+03   -0.11491122E-03    0.13006789E-01
    3   -0.19300622E+03   -0.51445791E-04    0.22907845E-02
    4   -0.19300623E+03   -0.51853551E-05    0.13217949E-02
    5   -0.19300623E+03   -0.24045792E-06    0.34363065E-03
    6   -0.19300623E+03   -0.12349631E-07    0.16747312E-03
    7   -0.19300623E+03   -0.48513016E-08    0.35684799E-04
    8   -0.19300623E+03   -0.35504399E-09    0.10789018E-04
    9   -0.19300623E+03   -0.82138740E-11    0.11974985E-05
 
Total Energy:                     -192.4601179790 H        -5237.1063 eV
Extrapolated to 0:                -192.4601179790 H        -5237.1063 eV
Total Mermin free energy:         -192.4601179790 H        -5237.1063 eV
Force related energy:             -192.4601179790 H        -5237.1063 eV
Maximal force component:             0.156966E-01
>> Charges saved for restart in charges.bin

--------------------------------------------------------------------------------

***  Geometry step: 14

 iSCC Total electronic   Diff electronic      SCC error    
    1   -0.19295150E+03    0.00000000E+00    0.73944696E-01
    2   -0.19295330E+03   -0.18095435E-02    0.45142040E-01
    3   -0.19295414E+03   -0.83710474E-03    0.16385904E-01
    4   -0.19295417E+03   -0.27363879E-04    0.30820596E-02
    5   -0.19295417E+03   -0.43503975E-05    0.10860886E-02
    6   -0.19295417E+03   -0.19201175E-06    0.45572390E-03
    7   -0.19295417E+03   -0.58185122E-07    0.41524197E-04
    8   -0.19295417E+03   -0.81766416E-09    0.10241260E-04
    9   -0.19295417E+03   -0.84440899E-10    0.46054712E-05
 
Total Energy:                     -192.4533805350 H        -5236.9229 eV
Extrapolated to 0:                -192.4533805350 H        -5236.9229 eV
Total Mermin free energy:         -192.4533805350 H        -5236.9229 eV
Force related energy:             -192.4533805350 H        -5236.9229 eV
Maximal force component:             0.553473E-01
>> Charges saved for restart in charges.bin

--------------------------------------------------------------------------------

***  Geometry step: 15

 iSCC Total electronic   Diff electronic      SCC error    
    1   -0.19298671E+03    0.00000000E+00    0.44888838E-01
    2   -0.19298730E+03   -0.59400374E-03    0.27673003E-01
    3   -0.19298760E+03   -0.29933696E-03    0.97030877E-02
    4   -0.19298761E+03   -0.10197095E-04    0.20212894E-02
    5   -0.19298761E+03   -0.13369937E-05    0.52655729E-03
    6   -0.19298761E+03   -0.62658501E-07    0.28940012E-03
    7   -0.19298761E+03   -0.21557184E-07    0.20681917E-04
    8   -0.19298761E+03   -0.22291147E-09    0.68020071E-05
 
Total Energy:                     -192.4657107016 H        -5237.2585 eV
Extrapolated to 0:                -192.4657107016 H        -5237.2585 eV
Total Mermin free energy:         -192.4657107016 H        -5237.2585 eV
Force related energy:             -192.4657107016 H        -5237.2585 eV
Maximal force component:             0.172061E-01
>> Charges saved for restart in charges.bin

--------------------------------------------------------------------------------

***  Geometry step: 16

 iSCC Total electronic   Diff electronic      SCC error    
    1   -0.19298616E+03    0.00000000E+00    0.18811532E-01
    2   -0.19298624E+03   -0.80373891E-04    0.11463705E-01
    3   -0.19298627E+03   -0.31567033E-04    0.27973328E-02
    4   -0.19298627E+03   -0.15490856E-05    0.10806296E-02
    5   -0.19298627E+03   -0.13664055E-06    0.12054769E-03
    6   -0.19298627E+03   -0.70025692E-08    0.76440510E-04
    7   -0.19298627E+03   -0.19217055E-08    0.27933386E-04
    8   -0.19298627E+03   -0.22930635E-09    0.85340256E-05
 
Total Energy:                     -192.4716378728 H        -5237.4197 eV
Extrapolated to 0:                -192.4716378728 H        -5237.4197 eV
Total Mermin free energy:         -192.4716378728 H        -5237.4197 eV
Force related energy:             -192.4716378728 H        -5237.4197 eV
Maximal force component:             0.112600E-01
>> Charges saved for restart in charges.bin

--------------------------------------------------------------------------------

***  Geometry step: 17

 iSCC Total electronic   Diff electronic      SCC error    
    1   -0.19297535E+03    0.00000000E+00    0.28704000E-01
    2   -0.19297554E+03   -0.19330667E-03    0.17512948E-01
    3   -0.19297562E+03   -0.75373950E-04    0.42948917E-02
    4   -0.19297562E+03   -0.39673678E-05    0.16323520E-02
    5   -0.19297562E+03   -0.34168801E-06    0.20817465E-03
    6   -0.19297562E+03   -0.18543091E-07    0.13788105E-03
    7   -0.19297562E+03   -0.49986681E-08    0.45598069E-04
    8   -0.19297562E+03   -0.60342131E-09    0.13146113E-04
    9   -0.19297562E+03   -0.24783731E-10    0.17636481E-05
 
Total Energy:                     -192.4691634563 H        -5237.3524 eV
Extrapolated to 0:                -192.4691634563 H        -5237.3524 eV
Total Mermin free energy:         -192.4691634563 H        -5237.3524 eV
Force related energy:             -192.4691634563 H        -5237.3524 eV
Maximal force component:             0.233538E-01
>> Charges saved for restart in charges.bin

--------------------------------------------------------------------------------

***  Geometry step: 18

 iSCC Total electronic   Diff electronic      SCC error    
    1   -0.19298377E+03    0.00000000E+00    0.18913209E-01
    2   -0.19298385E+03   -0.85637144E-04    0.11520463E-01
    3   -0.19298388E+03   -0.33061115E-04    0.28223613E-02
    4   -0.19298389E+03   -0.17314423E-05    0.10696684E-02
    5   -0.19298389E+03   -0.14270341E-06    0.13106818E-03
    6   -0.19298389E+03   -0.84833403E-08    0.92901492E-04
    7   -0.19298389E+03   -0.21138931E-08    0.30214141E-04
    8   -0.19298389E+03   -0.24590463E-09    0.91395074E-05
 
Total Energy:                     -192.4724465730 H        -5237.4417 eV
Extrapolated to 0:                -192.4724465730 H        -5237.4417 eV
Total Mermin free energy:         -192.4724465730 H        -5237.4417 eV
Force related energy:             -192.4724465730 H        -5237.4417 eV
Maximal force component:             0.131500E-01
>> Charges saved for restart in charges.bin

--------------------------------------------------------------------------------

***  Geometry step: 19

 iSCC Total electronic   Diff electronic      SCC error    
    1   -0.19303702E+03    0.00000000E+00    0.43868372E-01
    2   -0.19303737E+03   -0.35078711E-03    0.25257466E-01
    3   -0.19303744E+03   -0.73480952E-04    0.69630467E-02
    4   -0.19303745E+03   -0.37590746E-05    0.13178760E-02
    5   -0.19303745E+03   -0.22015058E-06    0.39829984E-03
    6   -0.19303745E+03   -0.12200672E-07    0.62844078E-04
    7   -0.19303745E+03   -0.59959859E-08    0.20240431E-04
    8   -0.19303745E+03   -0.24007818E-09    0.36324759E-05
 
Total Energy:                     -192.4736856134 H        -5237.4755 eV
Extrapolated to 0:                -192.4736856134 H        -5237.4755 eV
Total Mermin free energy:         -192.4736856134 H        -5237.4755 eV
Force related energy:             -192.4736856134 H        -5237.4755 eV
Maximal force component:             0.172284E-01
>> Charges saved for restart in charges.bin

--------------------------------------------------------------------------------

***  Geometry step: 20

 iSCC Total electronic   Diff electronic      SCC error    
    1   -0.19301391E+03    0.00000000E+00    0.19804248E-01
    2   -0.19301399E+03   -0.73826979E-04    0.11393051E-01
    3   -0.19301400E+03   -0.15495547E-04    0.31886344E-02
    4   -0.19301400E+03   -0.78106874E-06    0.59795019E-03
    5   -0.19301400E+03   -0.45161983E-07    0.13483997E-03
    6   -0.19301400E+03   -0.24235192E-08    0.26012268E-04
    7   -0.19301400E+03   -0.12739463E-08    0.88103757E-05
 
Total Energy:                     -192.4757245276 H        -5237.5309 eV
Extrapolated to 0:                -192.4757245276 H        -5237.5309 eV
Total Mermin free energy:         -192.4757245276 H        -5237.5309 eV
Force related energy:             -192.4757245276 H        -5237.5309 eV
Maximal force component:             0.828074E-02
>> Charges saved for restart in charges.bin

--------------------------------------------------------------------------------

***  Geometry step: 21

 iSCC Total electronic   Diff electronic      SCC error    
    1   -0.19301202E+03    0.00000000E+00    0.39563822E-01
    2   -0.19301223E+03   -0.21119966E-03    0.24391540E-01
    3   -0.19301231E+03   -0.86545450E-04    0.36166598E-02
    4   -0.19301232E+03   -0.33081944E-05    0.11417050E-02
    5   -0.19301232E+03   -0.42469219E-06    0.23029737E-03
    6   -0.19301232E+03   -0.14872995E-07    0.14823004E-03
    7   -0.19301232E+03   -0.21354651E-08    0.23412374E-04
    8   -0.19301232E+03   -0.41865178E-10    0.42963140E-05
 
Total Energy:                     -192.4778184709 H        -5237.5879 eV
Extrapolated to 0:                -192.4778184709 H        -5237.5879 eV
Total Mermin free energy:         -192.4778184709 H        -5237.5879 eV
Force related energy:             -192.4778184709 H        -5237.5879 eV
Maximal force component:             0.164625E-01
>> Charges saved for restart in charges.bin

--------------------------------------------------------------------------------

***  Geometry step: 22

 iSCC Total electronic   Diff electronic      SCC error    
    1   -0.19301271E+03    0.00000000E+00    0.66793505E-02
    2   -0.19301272E+03   -0.60128059E-05    0.41094745E-02
    3   -0.19301272E+03   -0.24799322E-05    0.61583431E-03
    4   -0.19301272E+03   -0.94293142E-07    0.19397036E-03
    5   -0.19301272E+03   -0.12846925E-07    0.29968161E-04
    6   -0.19301272E+03   -0.14844659E-09    0.22902029E-04
    7   -0.19301272E+03   -0.53489657E-10    0.39490692E-05
 
Total Energy:                     -192.4778991455 H        -5237.5901 eV
Extrapolated to 0:                -192.4778991455 H        -5237.5901 eV
Total Mermin free energy:         -192.4778991455 H        -5237.5901 eV
Force related energy:             -192.4778991455 H        -5237.5901 eV
Maximal force component:             0.133037E-01
>> Charges saved for restart in charges.bin

--------------------------------------------------------------------------------

***  Geometry step: 23

 iSCC Total electronic   Diff electronic      SCC error    
    1   -0.19301102E+03    0.00000000E+00    0.17008779E-01
    2   -0.19301105E+03   -0.32505835E-04    0.10970019E-01
    3   -0.19301107E+03   -0.16576031E-04    0.13179537E-02
    4   -0.19301107E+03   -0.95981619E-06    0.67957240E-03
    5   -0.19301107E+03   -0.86784894E-07    0.20771523E-03
    6   -0.19301107E+03   -0.37530299E-08    0.10803335E-03
    7   -0.19301107E+03   -0.11740440E-08    0.16449368E-04
    8   -0.19301107E+03   -0.77932327E-10    0.48530984E-05
 
Total Energy:                     -192.4801743033 H        -5237.6520 eV
Extrapolated to 0:                -192.4801743033 H        -5237.6520 eV
Total Mermin free energy:         -192.4801743033 H        -5237.6520 eV
Force related energy:             -192.4801743033 H        -5237.6520 eV
Maximal force component:             0.647712E-02
>> Charges saved for restart in charges.bin

--------------------------------------------------------------------------------

***  Geometry step: 24

 iSCC Total electronic   Diff electronic      SCC error    
    1   -0.19300491E+03    0.00000000E+00    0.27410680E-01
    2   -0.19300500E+03   -0.86268082E-04    0.17701836E-01
    3   -0.19300504E+03   -0.43303699E-04    0.21481470E-02
    4   -0.19300504E+03   -0.26938327E-05    0.11302688E-02
    5   -0.19300504E+03   -0.23595470E-06    0.32582278E-03
    6   -0.19300504E+03   -0.92342134E-08    0.18513648E-03
    7   -0.19300504E+03   -0.33989522E-08    0.26668191E-04
    8   -0.19300504E+03   -0.22339464E-09    0.76436549E-05
 
Total Energy:                     -192.4787405070 H        -5237.6130 eV
Extrapolated to 0:                -192.4787405070 H        -5237.6130 eV
Total Mermin free energy:         -192.4787405070 H        -5237.6130 eV
Force related energy:             -192.4787405070 H        -5237.6130 eV
Maximal force component:             0.186841E-01
>> Charges saved for restart in charges.bin

--------------------------------------------------------------------------------

***  Geometry step: 25

 iSCC Total electronic   Diff electronic      SCC error    
    1   -0.19300976E+03    0.00000000E+00    0.19966615E-01
    2   -0.19300981E+03   -0.46839448E-04    0.12864348E-01
    3   -0.19300983E+03   -0.23139164E-04    0.15910025E-02
    4   -0.19300983E+03   -0.14173442E-05    0.83418479E-03
    5   -0.19300983E+03   -0.13148008E-06    0.24340146E-03
    6   -0.19300983E+03   -0.47800768E-08    0.12694969E-03
    7   -0.19300983E+03   -0.16155468E-08    0.20225883E-04
    8   -0.19300983E+03   -0.12147439E-09    0.57900808E-05
 
Total Energy:                     -192.4804125517 H        -5237.6585 eV
Extrapolated to 0:                -192.4804125517 H        -5237.6585 eV
Total Mermin free energy:         -192.4804125517 H        -5237.6585 eV
Force related energy:             -192.4804125517 H        -5237.6585 eV
Maximal force component:             0.972453E-02
>> Charges saved for restart in charges.bin

--------------------------------------------------------------------------------

***  Geometry step: 26

 iSCC Total electronic   Diff electronic      SCC error    
    1   -0.19303785E+03    0.00000000E+00    0.24329284E-01
    2   -0.19303799E+03   -0.14657665E-03    0.15775797E-01
    3   -0.19303807E+03   -0.72818142E-04    0.30581962E-02
    4   -0.19303807E+03   -0.21033341E-05    0.11505349E-02
    5   -0.19303807E+03   -0.43132914E-06    0.13664844E-03
    6   -0.19303807E+03   -0.93638732E-08    0.67140724E-04
    7   -0.19303807E+03   -0.38558312E-08    0.24050874E-04
    8   -0.19303807E+03   -0.12232704E-09    0.59664801E-05
 
Total Energy:                     -192.4807142020 H        -5237.6667 eV
Extrapolated to 0:                -192.4807142020 H        -5237.6667 eV
Total Mermin free energy:         -192.4807142020 H        -5237.6667 eV
Force related energy:             -192.4807142020 H        -5237.6667 eV
Maximal force component:             0.131124E-01
>> Charges saved for restart in charges.bin

--------------------------------------------------------------------------------

***  Geometry step: 27

 iSCC Total electronic   Diff electronic      SCC error    
    1   -0.19302501E+03    0.00000000E+00    0.11334270E-01
    2   -0.19302505E+03   -0.32092232E-04    0.73457698E-02
    3   -0.19302506E+03   -0.15955425E-04    0.14261347E-02
    4   -0.19302506E+03   -0.45739856E-06    0.52881958E-03
    5   -0.19302506E+03   -0.92887348E-07    0.60063548E-04
    6   -0.19302506E+03   -0.17771242E-08    0.28513366E-04
    7   -0.19302506E+03   -0.78478024E-09    0.11798569E-04
    8   -0.19302506E+03   -0.24499514E-10    0.26694152E-05
 
Total Energy:                     -192.4815589646 H        -5237.6897 eV
Extrapolated to 0:                -192.4815589646 H        -5237.6897 eV
Total Mermin free energy:         -192.4815589646 H        -5237.6897 eV
Force related energy:             -192.4815589646 H        -5237.6897 eV
Maximal force component:             0.649935E-02
>> Charges saved for restart in charges.bin

--------------------------------------------------------------------------------

***  Geometry step: 28

 iSCC Total electronic   Diff electronic      SCC error    
    1   -0.19302572E+03    0.00000000E+00    0.56483171E-02
    2   -0.19302574E+03   -0.15324138E-04    0.31420885E-02
    3   -0.19302574E+03   -0.44208224E-05    0.18090208E-02
    4   -0.19302574E+03   -0.25113505E-06    0.24023229E-03
    5   -0.19302574E+03   -0.24605583E-07    0.99228408E-04
    6   -0.19302574E+03   -0.15142518E-08    0.36971165E-04
    7   -0.19302574E+03   -0.12917667E-09    0.14266325E-04
    8   -0.19302574E+03   -0.35356607E-10    0.34438078E-05
 
Total Energy:                     -192.4831891841 H        -5237.7341 eV
Extrapolated to 0:                -192.4831891841 H        -5237.7341 eV
Total Mermin free energy:         -192.4831891841 H        -5237.7341 eV
Force related energy:             -192.4831891841 H        -5237.7341 eV
Maximal force component:             0.569895E-02
>> Charges saved for restart in charges.bin

--------------------------------------------------------------------------------

***  Geometry step: 29

 iSCC Total electronic   Diff electronic      SCC error    
    1   -0.19302561E+03    0.00000000E+00    0.92746259E-02
    2   -0.19302565E+03   -0.39610016E-04    0.51845839E-02
    3   -0.19302566E+03   -0.11635591E-04    0.29141799E-02
    4   -0.19302566E+03   -0.65220888E-06    0.38813933E-03
    5   -0.19302566E+03   -0.65910712E-07    0.16381545E-03
    6   -0.19302566E+03   -0.41084718E-08    0.63757103E-04
    7   -0.19302566E+03   -0.40796522E-09    0.23062569E-04
    8   -0.19302566E+03   -0.96576969E-10    0.57499580E-05
 
Total Energy:                     -192.4842755028 H        -5237.7636 eV
Extrapolated to 0:                -192.4842755028 H        -5237.7636 eV
Total Mermin free energy:         -192.4842755028 H        -5237.7636 eV
Force related energy:             -192.4842755028 H        -5237.7636 eV
Maximal force component:             0.687084E-02
>> Charges saved for restart in charges.bin

--------------------------------------------------------------------------------

***  Geometry step: 30

 iSCC Total electronic   Diff electronic      SCC error    
    1   -0.19302230E+03    0.00000000E+00    0.15343316E-01
    2   -0.19302240E+03   -0.10209682E-03    0.86426650E-02
    3   -0.19302243E+03   -0.30796782E-04    0.46786558E-02
    4   -0.19302243E+03   -0.16886509E-05    0.62608874E-03
    5   -0.19302243E+03   -0.17933991E-06    0.27283155E-03
    6   -0.19302243E+03   -0.11353961E-07    0.11404461E-03
    7   -0.19302243E+03   -0.14616717E-08    0.37266616E-04
    8   -0.19302243E+03   -0.26872726E-09    0.97867529E-05
 
Total Energy:                     -192.4819102736 H        -5237.6993 eV
Extrapolated to 0:                -192.4819102736 H        -5237.6993 eV
Total Mermin free energy:         -192.4819102736 H        -5237.6993 eV
Force related energy:             -192.4819102736 H        -5237.6993 eV
Maximal force component:             0.174686E-01
>> Charges saved for restart in charges.bin

--------------------------------------------------------------------------------

***  Geometry step: 31

 iSCC Total electronic   Diff electronic      SCC error    
    1   -0.19302548E+03    0.00000000E+00    0.14766176E-01
    2   -0.19302558E+03   -0.95624967E-04    0.83219075E-02
    3   -0.19302561E+03   -0.28398470E-04    0.44875114E-02
    4   -0.19302561E+03   -0.15965750E-05    0.59726199E-03
    5   -0.19302561E+03   -0.16291173E-06    0.25574261E-03
    6   -0.19302561E+03   -0.10349765E-07    0.10897839E-03
    7   -0.19302561E+03   -0.12899761E-08    0.35330062E-04
    8   -0.19302561E+03   -0.23641178E-09    0.93533976E-05
 
Total Energy:                     -192.4842791824 H        -5237.7637 eV
Extrapolated to 0:                -192.4842791824 H        -5237.7637 eV
Total Mermin free energy:         -192.4842791824 H        -5237.7637 eV
Force related energy:             -192.4842791824 H        -5237.7637 eV
Maximal force component:             0.725250E-02
>> Charges saved for restart in charges.bin

--------------------------------------------------------------------------------

***  Geometry step: 32

 iSCC Total electronic   Diff electronic      SCC error    
    1   -0.19300563E+03    0.00000000E+00    0.47678830E-01
    2   -0.19300595E+03   -0.31743219E-03    0.28540105E-01
    3   -0.19300607E+03   -0.12317749E-03    0.59034798E-02
    4   -0.19300608E+03   -0.68347739E-05    0.14064693E-02
    5   -0.19300608E+03   -0.75105282E-06    0.24898449E-03
    6   -0.19300608E+03   -0.18756623E-07    0.12559400E-03
    7   -0.19300608E+03   -0.93964161E-08    0.23198179E-04
    8   -0.19300608E+03   -0.59912963E-10    0.74670593E-05
 
Total Energy:                     -192.4830700280 H        -5237.7308 eV
Extrapolated to 0:                -192.4830700280 H        -5237.7308 eV
Total Mermin free energy:         -192.4830700280 H        -5237.7308 eV
Force related energy:             -192.4830700280 H        -5237.7308 eV
Maximal force component:             0.139188E-01
>> Charges saved for restart in charges.bin

--------------------------------------------------------------------------------

***  Geometry step: 33

 iSCC Total electronic   Diff electronic      SCC error    
    1   -0.19301812E+03    0.00000000E+00    0.28595183E-01
    2   -0.19301824E+03   -0.11691202E-03    0.17092185E-01
    3   -0.19301828E+03   -0.44598860E-04    0.35541161E-02
    4   -0.19301828E+03   -0.24525723E-05    0.81185509E-03
    5   -0.19301828E+03   -0.27223183E-06    0.14818279E-03
    6   -0.19301828E+03   -0.64910353E-08    0.77048023E-04
    7   -0.19301828E+03   -0.35640255E-08    0.14864309E-04
    8   -0.19301828E+03   -0.21316282E-10    0.40090474E-05
 
Total Energy:                     -192.4852002745 H        -5237.7888 eV
Extrapolated to 0:                -192.4852002745 H        -5237.7888 eV
Total Mermin free energy:         -192.4852002745 H        -5237.7888 eV
Force related energy:             -192.4852002745 H        -5237.7888 eV
Maximal force component:             0.336725E-02
>> Charges saved for restart in charges.bin

--------------------------------------------------------------------------------

***  Geometry step: 34

 iSCC Total electronic   Diff electronic      SCC error    
    1   -0.19302834E+03    0.00000000E+00    0.23583222E-01
    2   -0.19302842E+03   -0.84192838E-04    0.14988712E-01
    3   -0.19302847E+03   -0.44073793E-04    0.20320796E-02
    4   -0.19302847E+03   -0.12309792E-05    0.46876539E-03
    5   -0.19302847E+03   -0.13646672E-06    0.97808449E-04
    6   -0.19302847E+03   -0.79537301E-08    0.79851212E-04
    7   -0.19302847E+03   -0.19037145E-08    0.97279951E-05
 
Total Energy:                     -192.4843981212 H        -5237.7670 eV
Extrapolated to 0:                -192.4843981212 H        -5237.7670 eV
Total Mermin free energy:         -192.4843981212 H        -5237.7670 eV
Force related energy:             -192.4843981212 H        -5237.7670 eV
Maximal force component:             0.106444E-01
>> Charges saved for restart in charges.bin

--------------------------------------------------------------------------------

***  Geometry step: 35

 iSCC Total electronic   Diff electronic      SCC error    
    1   -0.19302147E+03    0.00000000E+00    0.16258929E-01
    2   -0.19302151E+03   -0.40127329E-04    0.10338529E-01
    3   -0.19302153E+03   -0.20949643E-04    0.14052758E-02
    4   -0.19302153E+03   -0.59967425E-06    0.32362145E-03
    5   -0.19302153E+03   -0.66833820E-07    0.64922558E-04
    6   -0.19302153E+03   -0.31166110E-08    0.56255479E-04
    7   -0.19302153E+03   -0.94189545E-09    0.70902387E-05
 
Total Energy:                     -192.4854079994 H        -5237.7944 eV
Extrapolated to 0:                -192.4854079994 H        -5237.7944 eV
Total Mermin free energy:         -192.4854079994 H        -5237.7944 eV
Force related energy:             -192.4854079994 H        -5237.7944 eV
Maximal force component:             0.330290E-02
>> Charges saved for restart in charges.bin

--------------------------------------------------------------------------------

***  Geometry step: 36

 iSCC Total electronic   Diff electronic      SCC error    
    1   -0.19302091E+03    0.00000000E+00    0.27055714E-02
    2   -0.19302091E+03   -0.23894727E-05    0.17228786E-02
    3   -0.19302091E+03   -0.10858047E-05    0.34114184E-03
    4   -0.19302091E+03   -0.60980767E-07    0.95419848E-04
    5   -0.19302091E+03   -0.82363556E-08    0.25815124E-04
    6   -0.19302091E+03   -0.32440539E-09    0.10753883E-04
    7   -0.19302091E+03   -0.38482995E-10    0.45214791E-05
 
Total Energy:                     -192.4856947404 H        -5237.8023 eV
Extrapolated to 0:                -192.4856947404 H        -5237.8023 eV
Total Mermin free energy:         -192.4856947404 H        -5237.8023 eV
Force related energy:             -192.4856947404 H        -5237.8023 eV
Maximal force component:             0.239007E-02
>> Charges saved for restart in charges.bin

--------------------------------------------------------------------------------

***  Geometry step: 37

 iSCC Total electronic   Diff electronic      SCC error    
    1   -0.19301973E+03    0.00000000E+00    0.44074005E-02
    2   -0.19301974E+03   -0.63553331E-05    0.27983886E-02
    3   -0.19301974E+03   -0.28725667E-05    0.54906429E-03
    4   -0.19301974E+03   -0.16274871E-06    0.15559185E-03
    5   -0.19301974E+03   -0.21492639E-07    0.45305910E-04
    6   -0.19301974E+03   -0.88778052E-09    0.19948532E-04
    7   -0.19301974E+03   -0.17084290E-09    0.74276206E-05
 
Total Energy:                     -192.4859301053 H        -5237.8087 eV
Extrapolated to 0:                -192.4859301053 H        -5237.8087 eV
Total Mermin free energy:         -192.4859301053 H        -5237.8087 eV
Force related energy:             -192.4859301053 H        -5237.8087 eV
Maximal force component:             0.359943E-02
>> Charges saved for restart in charges.bin

--------------------------------------------------------------------------------

***  Geometry step: 38

 iSCC Total electronic   Diff electronic      SCC error    
    1   -0.19301738E+03    0.00000000E+00    0.72241943E-02
    2   -0.19301739E+03   -0.17014248E-04    0.45691209E-02
    3   -0.19301740E+03   -0.76245807E-05    0.88110858E-03
    4   -0.19301740E+03   -0.43991380E-06    0.25328516E-03
    5   -0.19301740E+03   -0.56705318E-07    0.75136106E-04
    6   -0.19301740E+03   -0.23421478E-08    0.32221622E-04
    7   -0.19301740E+03   -0.46713922E-09    0.12067641E-04
    8   -0.19301740E+03   -0.28904878E-10    0.43886379E-05
 
Total Energy:                     -192.4857137379 H        -5237.8028 eV
Extrapolated to 0:                -192.4857137379 H        -5237.8028 eV
Total Mermin free energy:         -192.4857137379 H        -5237.8028 eV
Force related energy:             -192.4857137379 H        -5237.8028 eV
Maximal force component:             0.625244E-02
>> Charges saved for restart in charges.bin

--------------------------------------------------------------------------------

***  Geometry step: 39

 iSCC Total electronic   Diff electronic      SCC error    
    1   -0.19301929E+03    0.00000000E+00    0.57286135E-02
    2   -0.19301930E+03   -0.10746908E-04    0.36311994E-02
    3   -0.19301930E+03   -0.48141485E-05    0.69780841E-03
    4   -0.19301930E+03   -0.27316113E-06    0.20117135E-03
    5   -0.19301930E+03   -0.36074766E-07    0.56634327E-04
    6   -0.19301930E+03   -0.15438957E-08    0.26794363E-04
    7   -0.19301930E+03   -0.28725822E-09    0.95343444E-05
 
Total Energy:                     -192.4859458470 H        -5237.8091 eV
Extrapolated to 0:                -192.4859458470 H        -5237.8091 eV
Total Mermin free energy:         -192.4859458470 H        -5237.8091 eV
Force related energy:             -192.4859458470 H        -5237.8091 eV
Maximal force component:             0.405898E-02
>> Charges saved for restart in charges.bin

--------------------------------------------------------------------------------

***  Geometry step: 40

 iSCC Total electronic   Diff electronic      SCC error    
    1   -0.19301683E+03    0.00000000E+00    0.81526444E-02
    2   -0.19301685E+03   -0.13833217E-04    0.54211651E-02
    3   -0.19301685E+03   -0.81947695E-05    0.55724276E-03
    4   -0.19301685E+03   -0.16114356E-06    0.18715926E-03
    5   -0.19301685E+03   -0.89387697E-08    0.76116004E-04
    6   -0.19301685E+03   -0.65966788E-09    0.51211782E-04
    7   -0.19301685E+03   -0.22413360E-09    0.46733281E-05
 
Total Energy:                     -192.4862761293 H        -5237.8181 eV
Extrapolated to 0:                -192.4862761293 H        -5237.8181 eV
Total Mermin free energy:         -192.4862761293 H        -5237.8181 eV
Force related energy:             -192.4862761293 H        -5237.8181 eV
Maximal force component:             0.504701E-02
>> Charges saved for restart in charges.bin

--------------------------------------------------------------------------------

***  Geometry step: 41

 iSCC Total electronic   Diff electronic      SCC error    
    1   -0.19301746E+03    0.00000000E+00    0.18877511E-02
    2   -0.19301746E+03   -0.73895148E-06    0.12563538E-02
    3   -0.19301746E+03   -0.43755566E-06    0.12823604E-03
    4   -0.19301746E+03   -0.87848662E-08    0.43804254E-04
    5   -0.19301746E+03   -0.49857363E-09    0.19844192E-04
    6   -0.19301746E+03   -0.41382009E-10    0.68928419E-05
 
Total Energy:                     -192.4863100155 H        -5237.8190 eV
Extrapolated to 0:                -192.4863100155 H        -5237.8190 eV
Total Mermin free energy:         -192.4863100155 H        -5237.8190 eV
Force related energy:             -192.4863100155 H        -5237.8190 eV
Maximal force component:             0.351916E-02
>> Charges saved for restart in charges.bin

--------------------------------------------------------------------------------

***  Geometry step: 42

 iSCC Total electronic   Diff electronic      SCC error    
    1   -0.19301883E+03    0.00000000E+00    0.91784623E-02
    2   -0.19301883E+03   -0.74954752E-05    0.61575517E-02
    3   -0.19301884E+03   -0.27446595E-05    0.10658901E-02
    4   -0.19301884E+03   -0.17871730E-06    0.35212478E-03
    5   -0.19301884E+03   -0.10509183E-07    0.60915551E-04
    6   -0.19301884E+03   -0.65688255E-09    0.27853470E-04
    7   -0.19301884E+03   -0.10842882E-09    0.65479189E-05
 
Total Energy:                     -192.4867222237 H        -5237.8302 eV
Extrapolated to 0:                -192.4867222237 H        -5237.8302 eV
Total Mermin free energy:         -192.4867222237 H        -5237.8302 eV
Force related energy:             -192.4867222237 H        -5237.8302 eV
Maximal force component:             0.310347E-02
>> Charges saved for restart in charges.bin

--------------------------------------------------------------------------------

***  Geometry step: 43

 iSCC Total electronic   Diff electronic      SCC error    
    1   -0.19302052E+03    0.00000000E+00    0.14859131E-01
    2   -0.19302054E+03   -0.19633322E-04    0.99765818E-02
    3   -0.19302055E+03   -0.71829920E-05    0.17495469E-02
    4   -0.19302055E+03   -0.46730236E-06    0.57630138E-03
    5   -0.19302055E+03   -0.28383738E-07    0.10143292E-03
    6   -0.19302055E+03   -0.17665513E-08    0.47032451E-04
    7   -0.19302055E+03   -0.34270897E-09    0.10934727E-04
    8   -0.19302055E+03   -0.71281647E-10    0.18995503E-05
 
Total Energy:                     -192.4863121482 H        -5237.8191 eV
Extrapolated to 0:                -192.4863121482 H        -5237.8191 eV
Total Mermin free energy:         -192.4863121482 H        -5237.8191 eV
Force related energy:             -192.4863121482 H        -5237.8191 eV
Maximal force component:             0.671555E-02
>> Charges saved for restart in charges.bin

--------------------------------------------------------------------------------

***  Geometry step: 44

 iSCC Total electronic   Diff electronic      SCC error    
    1   -0.19301920E+03    0.00000000E+00    0.12010788E-01
    2   -0.19301921E+03   -0.12846646E-04    0.80670967E-02
    3   -0.19301921E+03   -0.47010277E-05    0.14047309E-02
    4   -0.19301921E+03   -0.30872164E-06    0.46591322E-03
    5   -0.19301921E+03   -0.18365370E-07    0.80528815E-04
    6   -0.19301921E+03   -0.11343388E-08    0.38048949E-04
    7   -0.19301921E+03   -0.21310598E-09    0.87438312E-05
 
Total Energy:                     -192.4867467106 H        -5237.8309 eV
Extrapolated to 0:                -192.4867467106 H        -5237.8309 eV
Total Mermin free energy:         -192.4867467106 H        -5237.8309 eV
Force related energy:             -192.4867467106 H        -5237.8309 eV
Maximal force component:             0.323919E-02
>> Charges saved for restart in charges.bin

--------------------------------------------------------------------------------

***  Geometry step: 45

 iSCC Total electronic   Diff electronic      SCC error    
    1   -0.19301707E+03    0.00000000E+00    0.87753908E-02
    2   -0.19301710E+03   -0.28476980E-04    0.52632310E-02
    3   -0.19301711E+03   -0.13092229E-04    0.18072242E-02
    4   -0.19301711E+03   -0.65305170E-06    0.65339627E-03
    5   -0.19301711E+03   -0.83108574E-07    0.82529600E-04
    6   -0.19301711E+03   -0.25657698E-08    0.68990728E-04
    7   -0.19301711E+03   -0.59452532E-09    0.16115290E-04
    8   -0.19301711E+03   -0.67274186E-10    0.30265616E-05
 
Total Energy:                     -192.4870209737 H        -5237.8383 eV
Extrapolated to 0:                -192.4870209737 H        -5237.8383 eV
Total Mermin free energy:         -192.4870209737 H        -5237.8383 eV
Force related energy:             -192.4870209737 H        -5237.8383 eV
Maximal force component:             0.371625E-02
>> Charges saved for restart in charges.bin

--------------------------------------------------------------------------------

***  Geometry step: 46

 iSCC Total electronic   Diff electronic      SCC error    
    1   -0.19301768E+03    0.00000000E+00    0.21898940E-02
    2   -0.19301768E+03   -0.17691957E-05    0.13133628E-02
    3   -0.19301768E+03   -0.81538857E-06    0.44900262E-03
    4   -0.19301768E+03   -0.40664048E-07    0.16316914E-03
    5   -0.19301768E+03   -0.51321365E-08    0.21018440E-04
    6   -0.19301768E+03   -0.16223112E-09    0.12506466E-04
    7   -0.19301768E+03   -0.12306600E-10    0.38598604E-05
 
Total Energy:                     -192.4870555416 H        -5237.8393 eV
Extrapolated to 0:                -192.4870555416 H        -5237.8393 eV
Total Mermin free energy:         -192.4870555416 H        -5237.8393 eV
Force related energy:             -192.4870555416 H        -5237.8393 eV
Maximal force component:             0.290752E-02
>> Charges saved for restart in charges.bin

--------------------------------------------------------------------------------

***  Geometry step: 47

 iSCC Total electronic   Diff electronic      SCC error    
    1   -0.19302257E+03    0.00000000E+00    0.12818248E-01
    2   -0.19302260E+03   -0.31591586E-04    0.78991877E-02
    3   -0.19302262E+03   -0.15684003E-04    0.13663976E-02
    4   -0.19302262E+03   -0.33288873E-06    0.39833033E-03
    5   -0.19302262E+03   -0.11730518E-06    0.85114673E-04
    6   -0.19302262E+03   -0.10998065E-08    0.48604028E-04
    7   -0.19302262E+03   -0.51326765E-09    0.74539342E-05
 
Total Energy:                     -192.4869453312 H        -5237.8363 eV
Extrapolated to 0:                -192.4869453312 H        -5237.8363 eV
Total Mermin free energy:         -192.4869453312 H        -5237.8363 eV
Force related energy:             -192.4869453312 H        -5237.8363 eV
Maximal force component:             0.571686E-02
>> Charges saved for restart in charges.bin

--------------------------------------------------------------------------------

***  Geometry step: 48

 iSCC Total electronic   Diff electronic      SCC error    
    1   -0.19301975E+03    0.00000000E+00    0.75244950E-02
    2   -0.19301976E+03   -0.10882268E-04    0.46341559E-02
    3   -0.19301976E+03   -0.54038360E-05    0.80051057E-03
    4   -0.19301976E+03   -0.11460065E-06    0.23063664E-03
    5   -0.19301976E+03   -0.40035587E-07    0.49164866E-04
    6   -0.19301976E+03   -0.35799985E-09    0.28788838E-04
    7   -0.19301976E+03   -0.17308821E-09    0.44689509E-05
 
Total Energy:                     -192.4871618490 H        -5237.8422 eV
Extrapolated to 0:                -192.4871618490 H        -5237.8422 eV
Total Mermin free energy:         -192.4871618490 H        -5237.8422 eV
Force related energy:             -192.4871618490 H        -5237.8422 eV
Maximal force component:             0.180825E-02
>> Charges saved for restart in charges.bin

--------------------------------------------------------------------------------

***  Geometry step: 49

 iSCC Total electronic   Diff electronic      SCC error    
    1   -0.19302048E+03    0.00000000E+00    0.17906249E-02
    2   -0.19302048E+03   -0.79314160E-06    0.10252135E-02
    3   -0.19302048E+03   -0.34786979E-06    0.44980389E-03
    4   -0.19302048E+03   -0.38734584E-07    0.12824112E-03
    5   -0.19302048E+03   -0.27341400E-08    0.22529486E-04
    6   -0.19302048E+03   -0.26585667E-09    0.39994586E-05
 
Total Energy:                     -192.4873096550 H        -5237.8462 eV
Extrapolated to 0:                -192.4873096550 H        -5237.8462 eV
Total Mermin free energy:         -192.4873096550 H        -5237.8462 eV
Force related energy:             -192.4873096550 H        -5237.8462 eV
Maximal force component:             0.146697E-02
>> Charges saved for restart in charges.bin

--------------------------------------------------------------------------------

***  Geometry step: 50

 iSCC Total electronic   Diff electronic      SCC error    
    1   -0.19302149E+03    0.00000000E+00    0.28467717E-02
    2   -0.19302149E+03   -0.20730467E-05    0.16384543E-02
    3   -0.19302150E+03   -0.90790755E-06    0.73647536E-03
    4   -0.19302150E+03   -0.10227390E-06    0.20775104E-03
    5   -0.19302150E+03   -0.72150215E-08    0.37530012E-04
    6   -0.19302150E+03   -0.66125949E-09    0.82953695E-05
 
Total Energy:                     -192.4873838280 H        -5237.8482 eV
Extrapolated to 0:                -192.4873838280 H        -5237.8482 eV
Total Mermin free energy:         -192.4873838280 H        -5237.8482 eV
Force related energy:             -192.4873838280 H        -5237.8482 eV
Maximal force component:             0.268214E-02
>> Charges saved for restart in charges.bin

--------------------------------------------------------------------------------

***  Geometry step: 51

 iSCC Total electronic   Diff electronic      SCC error    
    1   -0.19302137E+03    0.00000000E+00    0.39215634E-03
    2   -0.19302137E+03   -0.38613990E-07    0.22546024E-03
    3   -0.19302137E+03   -0.16975434E-07    0.10125861E-03
    4   -0.19302137E+03   -0.20093296E-08    0.28471437E-04
    5   -0.19302137E+03   -0.13130830E-09    0.50707968E-05
 
Total Energy:                     -192.4873857288 H        -5237.8483 eV
Extrapolated to 0:                -192.4873857288 H        -5237.8483 eV
Total Mermin free energy:         -192.4873857288 H        -5237.8483 eV
Force related energy:             -192.4873857288 H        -5237.8483 eV
Maximal force component:             0.246072E-02
>> Charges saved for restart in charges.bin

--------------------------------------------------------------------------------

***  Geometry step: 52

 iSCC Total electronic   Diff electronic      SCC error    
    1   -0.19301731E+03    0.00000000E+00    0.42100945E-02
    2   -0.19301732E+03   -0.11627421E-04    0.31201801E-02
    3   -0.19301733E+03   -0.59035833E-05    0.13946014E-02
    4   -0.19301733E+03   -0.12384220E-06    0.46062750E-03
    5   -0.19301733E+03   -0.19231578E-07    0.69636528E-04
    6   -0.19301733E+03   -0.90042818E-09    0.37602273E-04
    7   -0.19301733E+03   -0.27512215E-09    0.12324735E-04
    8   -0.19301733E+03   -0.18246737E-10    0.17260686E-05
 
Total Energy:                     -192.4874662580 H        -5237.8505 eV
Extrapolated to 0:                -192.4874662580 H        -5237.8505 eV
Total Mermin free energy:         -192.4874662580 H        -5237.8505 eV
Force related energy:             -192.4874662580 H        -5237.8505 eV
Maximal force component:             0.271024E-02
>> Charges saved for restart in charges.bin

--------------------------------------------------------------------------------

***  Geometry step: 53

 iSCC Total electronic   Diff electronic      SCC error    
    1   -0.19301891E+03    0.00000000E+00    0.16213884E-02
    2   -0.19301891E+03   -0.17020763E-05    0.11919178E-02
    3   -0.19301891E+03   -0.86179830E-06    0.53476073E-03
    4   -0.19301891E+03   -0.17973292E-07    0.17655078E-03
    5   -0.19301891E+03   -0.28744296E-08    0.25051205E-04
    6   -0.19301891E+03   -0.16393642E-09    0.10920995E-04
    7   -0.19301891E+03   -0.14097168E-10    0.44944801E-05
 
Total Energy:                     -192.4875164753 H        -5237.8518 eV
Extrapolated to 0:                -192.4875164753 H        -5237.8518 eV
Total Mermin free energy:         -192.4875164753 H        -5237.8518 eV
Force related energy:             -192.4875164753 H        -5237.8518 eV
Maximal force component:             0.135489E-02
>> Charges saved for restart in charges.bin

--------------------------------------------------------------------------------

***  Geometry step: 54

 iSCC Total electronic   Diff electronic      SCC error    
    1   -0.19302022E+03    0.00000000E+00    0.10566682E-01
    2   -0.19302023E+03   -0.72218010E-05    0.69400665E-02
    3   -0.19302023E+03   -0.36556162E-05    0.59639257E-03
    4   -0.19302023E+03   -0.14327892E-06    0.20797452E-03
    5   -0.19302023E+03   -0.16865386E-07    0.74768737E-04
    6   -0.19302023E+03   -0.58892624E-09    0.54596496E-04
    7   -0.19302023E+03   -0.13639578E-09    0.54523117E-05
 
Total Energy:                     -192.4875732117 H        -5237.8534 eV
Extrapolated to 0:                -192.4875732117 H        -5237.8534 eV
Total Mermin free energy:         -192.4875732117 H        -5237.8534 eV
Force related energy:             -192.4875732117 H        -5237.8534 eV
Maximal force component:             0.259810E-02
>> Charges saved for restart in charges.bin

--------------------------------------------------------------------------------

***  Geometry step: 55

 iSCC Total electronic   Diff electronic      SCC error    
    1   -0.19301981E+03    0.00000000E+00    0.34434644E-02
    2   -0.19301981E+03   -0.76986365E-06    0.22616149E-02
    3   -0.19301981E+03   -0.38959732E-06    0.19321516E-03
    4   -0.19301981E+03   -0.15368556E-07    0.67316155E-04
    5   -0.19301981E+03   -0.18120829E-08    0.28172311E-04
    6   -0.19301981E+03   -0.66847861E-10    0.99130431E-05
 
Total Energy:                     -192.4875907008 H        -5237.8538 eV
Extrapolated to 0:                -192.4875907008 H        -5237.8538 eV
Total Mermin free energy:         -192.4875907008 H        -5237.8538 eV
Force related energy:             -192.4875907008 H        -5237.8538 eV
Maximal force component:             0.166464E-02
>> Charges saved for restart in charges.bin

--------------------------------------------------------------------------------

***  Geometry step: 56

 iSCC Total electronic   Diff electronic      SCC error    
    1   -0.19302005E+03    0.00000000E+00    0.27731296E-02
    2   -0.19302005E+03   -0.11965726E-05    0.15756968E-02
    3   -0.19302005E+03   -0.45078659E-06    0.30762445E-03
    4   -0.19302005E+03   -0.21236502E-07    0.60981697E-04
    5   -0.19302005E+03   -0.12912267E-08    0.19913641E-04
    6   -0.19302005E+03   -0.83929308E-10    0.85474663E-05
 
Total Energy:                     -192.4876961225 H        -5237.8567 eV
Extrapolated to 0:                -192.4876961225 H        -5237.8567 eV
Total Mermin free energy:         -192.4876961225 H        -5237.8567 eV
Force related energy:             -192.4876961225 H        -5237.8567 eV
Maximal force component:             0.149596E-02
>> Charges saved for restart in charges.bin

--------------------------------------------------------------------------------

***  Geometry step: 57

 iSCC Total electronic   Diff electronic      SCC error    
    1   -0.19302032E+03    0.00000000E+00    0.44596740E-02
    2   -0.19302032E+03   -0.31563077E-05    0.25247527E-02
    3   -0.19302032E+03   -0.11807808E-05    0.49436669E-03
    4   -0.19302032E+03   -0.55322005E-07    0.98364549E-04
    5   -0.19302032E+03   -0.33496974E-08    0.31747351E-04
    6   -0.19302032E+03   -0.20870061E-09    0.16873923E-04
    7   -0.19302032E+03   -0.11908696E-10    0.45728253E-05
 
Total Energy:                     -192.4877334355 H        -5237.8577 eV
Extrapolated to 0:                -192.4877334355 H        -5237.8577 eV
Total Mermin free energy:         -192.4877334355 H        -5237.8577 eV
Force related energy:             -192.4877334355 H        -5237.8577 eV
Maximal force component:             0.294597E-02
>> Charges saved for restart in charges.bin

--------------------------------------------------------------------------------

***  Geometry step: 58

 iSCC Total electronic   Diff electronic      SCC error    
    1   -0.19302026E+03    0.00000000E+00    0.12238200E-02
    2   -0.19302026E+03   -0.23787049E-06    0.69212702E-03
    3   -0.19302026E+03   -0.88920928E-07    0.13494701E-03
    4   -0.19302026E+03   -0.41526960E-08    0.26696765E-04
    5   -0.19302026E+03   -0.24695623E-09    0.87732249E-05
 
Total Energy:                     -192.4877396270 H        -5237.8579 eV
Extrapolated to 0:                -192.4877396270 H        -5237.8579 eV
Total Mermin free energy:         -192.4877396270 H        -5237.8579 eV
Force related energy:             -192.4877396270 H        -5237.8579 eV
Maximal force component:             0.229223E-02
>> Charges saved for restart in charges.bin

--------------------------------------------------------------------------------

***  Geometry step: 59

 iSCC Total electronic   Diff electronic      SCC error    
    1   -0.19301607E+03    0.00000000E+00    0.61222963E-02
    2   -0.19301608E+03   -0.62698475E-05    0.38897136E-02
    3   -0.19301608E+03   -0.26711688E-05    0.71932918E-03
    4   -0.19301608E+03   -0.11583384E-06    0.20605811E-03
    5   -0.19301608E+03   -0.16992942E-07    0.25670235E-04
    6   -0.19301608E+03   -0.35805670E-09    0.11432442E-04
    7   -0.19301608E+03   -0.19235813E-09    0.33374244E-05
 
Total Energy:                     -192.4878786399 H        -5237.8617 eV
Extrapolated to 0:                -192.4878786399 H        -5237.8617 eV
Total Mermin free energy:         -192.4878786399 H        -5237.8617 eV
Force related energy:             -192.4878786399 H        -5237.8617 eV
Maximal force component:             0.251563E-02
>> Charges saved for restart in charges.bin

--------------------------------------------------------------------------------

***  Geometry step: 60

 iSCC Total electronic   Diff electronic      SCC error    
    1   -0.19301615E+03    0.00000000E+00    0.99899941E-04
    2   -0.19301615E+03   -0.16810588E-08    0.63564851E-04
    3   -0.19301615E+03   -0.71258910E-09    0.11773812E-04
    4   -0.19301615E+03   -0.31434411E-10    0.32697167E-05
 
Total Energy:                     -192.4878786815 H        -5237.8617 eV
Extrapolated to 0:                -192.4878786815 H        -5237.8617 eV
Total Mermin free energy:         -192.4878786815 H        -5237.8617 eV
Force related energy:             -192.4878786815 H        -5237.8617 eV
Maximal force component:             0.247346E-02
>> Charges saved for restart in charges.bin

--------------------------------------------------------------------------------

***  Geometry step: 61

 iSCC Total electronic   Diff electronic      SCC error    
    1   -0.19301619E+03    0.00000000E+00    0.14311622E-02
    2   -0.19301619E+03   -0.11655392E-05    0.81622773E-03
    3   -0.19301619E+03   -0.55123928E-06    0.17746811E-03
    4   -0.19301619E+03   -0.16029219E-07    0.74387174E-04
    5   -0.19301619E+03   -0.67609562E-09    0.24177723E-04
    6   -0.19301619E+03   -0.80774498E-10    0.42351711E-05
 
Total Energy:                     -192.4881114654 H        -5237.8680 eV
Extrapolated to 0:                -192.4881114654 H        -5237.8680 eV
Total Mermin free energy:         -192.4881114654 H        -5237.8680 eV
Force related energy:             -192.4881114654 H        -5237.8680 eV
Maximal force component:             0.178867E-02
>> Charges saved for restart in charges.bin

--------------------------------------------------------------------------------

***  Geometry step: 62

 iSCC Total electronic   Diff electronic      SCC error    
    1   -0.19301593E+03    0.00000000E+00    0.24113932E-02
    2   -0.19301594E+03   -0.30409263E-05    0.13856872E-02
    3   -0.19301594E+03   -0.14615349E-05    0.26493231E-03
    4   -0.19301594E+03   -0.39886203E-07    0.10738946E-03
    5   -0.19301594E+03   -0.17240041E-08    0.38800419E-04
    6   -0.19301594E+03   -0.17294610E-09    0.10279868E-04
    7   -0.19301594E+03   -0.37317704E-10    0.27987256E-05
 
Total Energy:                     -192.4883363497 H        -5237.8741 eV
Extrapolated to 0:                -192.4883363497 H        -5237.8741 eV
Total Mermin free energy:         -192.4883363497 H        -5237.8741 eV
Force related energy:             -192.4883363497 H        -5237.8741 eV
Maximal force component:             0.362484E-02
>> Charges saved for restart in charges.bin

--------------------------------------------------------------------------------

***  Geometry step: 63

 iSCC Total electronic   Diff electronic      SCC error    
    1   -0.19301469E+03    0.00000000E+00    0.41409901E-02
    2   -0.19301470E+03   -0.80011164E-05    0.24058532E-02
    3   -0.19301471E+03   -0.39395926E-05    0.46328858E-03
    4   -0.19301471E+03   -0.97589833E-07    0.14132492E-03
    5   -0.19301471E+03   -0.45186823E-08    0.62092885E-04
    6   -0.19301471E+03   -0.29498892E-09    0.21522060E-04
    7   -0.19301471E+03   -0.17615776E-09    0.39904856E-05
 
Total Energy:                     -192.4883074338 H        -5237.8733 eV
Extrapolated to 0:                -192.4883074338 H        -5237.8733 eV
Total Mermin free energy:         -192.4883074338 H        -5237.8733 eV
Force related energy:             -192.4883074338 H        -5237.8733 eV
Maximal force component:             0.711722E-02
>> Charges saved for restart in charges.bin

--------------------------------------------------------------------------------

***  Geometry step: 64

 iSCC Total electronic   Diff electronic      SCC error    
    1   -0.19301552E+03    0.00000000E+00    0.23512006E-02
    2   -0.19301552E+03   -0.25143621E-05    0.13703972E-02
    3   -0.19301552E+03   -0.12471820E-05    0.26538052E-03
    4   -0.19301552E+03   -0.30060676E-07    0.73109947E-04
    5   -0.19301552E+03   -0.14364332E-08    0.30594654E-04
    6   -0.19301552E+03   -0.13977797E-09    0.83152292E-05
 
Total Energy:                     -192.4883833477 H        -5237.8754 eV
Extrapolated to 0:                -192.4883833477 H        -5237.8754 eV
Total Mermin free energy:         -192.4883833477 H        -5237.8754 eV
Force related energy:             -192.4883833477 H        -5237.8754 eV
Maximal force component:             0.503821E-02
>> Charges saved for restart in charges.bin

--------------------------------------------------------------------------------

***  Geometry step: 65

 iSCC Total electronic   Diff electronic      SCC error    
    1   -0.19301720E+03    0.00000000E+00    0.69839683E-02
    2   -0.19301721E+03   -0.17909578E-04    0.46576648E-02
    3   -0.19301722E+03   -0.63792967E-05    0.10875288E-02
    4   -0.19301722E+03   -0.27685851E-06    0.56544977E-03
    5   -0.19301722E+03   -0.30310929E-07    0.51469913E-04
    6   -0.19301722E+03   -0.70298256E-09    0.40020287E-04
    7   -0.19301722E+03   -0.19832669E-09    0.73403595E-05
 
Total Energy:                     -192.4890536569 H        -5237.8937 eV
Extrapolated to 0:                -192.4890536569 H        -5237.8937 eV
Total Mermin free energy:         -192.4890536569 H        -5237.8937 eV
Force related energy:             -192.4890536569 H        -5237.8937 eV
Maximal force component:             0.275321E-02
>> Charges saved for restart in charges.bin

--------------------------------------------------------------------------------

***  Geometry step: 66

 iSCC Total electronic   Diff electronic      SCC error    
    1   -0.19301555E+03    0.00000000E+00    0.11350350E-01
    2   -0.19301560E+03   -0.49860865E-04    0.76310229E-02
    3   -0.19301562E+03   -0.18536069E-04    0.19191571E-02
    4   -0.19301562E+03   -0.77109630E-06    0.85888899E-03
    5   -0.19301562E+03   -0.77615113E-07    0.90529803E-04
    6   -0.19301562E+03   -0.20862103E-08    0.46920509E-04
    7   -0.19301562E+03   -0.55251803E-09    0.82292990E-05
 
Total Energy:                     -192.4885192051 H        -5237.8791 eV
Extrapolated to 0:                -192.4885192051 H        -5237.8791 eV
Total Mermin free energy:         -192.4885192051 H        -5237.8791 eV
Force related energy:             -192.4885192051 H        -5237.8791 eV
Maximal force component:             0.806165E-02
>> Charges saved for restart in charges.bin

--------------------------------------------------------------------------------

***  Geometry step: 67

 iSCC Total electronic   Diff electronic      SCC error    
    1   -0.19301729E+03    0.00000000E+00    0.86626723E-02
    2   -0.19301732E+03   -0.29580140E-04    0.58541284E-02
    3   -0.19301733E+03   -0.11110055E-04    0.14895482E-02
    4   -0.19301733E+03   -0.47166435E-06    0.67289691E-03
    5   -0.19301733E+03   -0.45202626E-07    0.72906583E-04
    6   -0.19301733E+03   -0.12839507E-08    0.37753028E-04
    7   -0.19301733E+03   -0.32142111E-09    0.62299086E-05
 
Total Energy:                     -192.4891186222 H        -5237.8954 eV
Extrapolated to 0:                -192.4891186222 H        -5237.8954 eV
Total Mermin free energy:         -192.4891186222 H        -5237.8954 eV
Force related energy:             -192.4891186222 H        -5237.8954 eV
Maximal force component:             0.316014E-02
>> Charges saved for restart in charges.bin

--------------------------------------------------------------------------------

***  Geometry step: 68

 iSCC Total electronic   Diff electronic      SCC error    
    1   -0.19301774E+03    0.00000000E+00    0.15056331E-01
    2   -0.19301784E+03   -0.93562562E-04    0.10064986E-01
    3   -0.19301789E+03   -0.52140318E-04    0.15025705E-02
    4   -0.19301789E+03   -0.87941396E-06    0.68429566E-03
    5   -0.19301789E+03   -0.12540312E-06    0.17553535E-03
    6   -0.19301789E+03   -0.10220560E-07    0.11481970E-03
    7   -0.19301789E+03   -0.24059545E-08    0.14208337E-04
    8   -0.19301789E+03   -0.69292128E-10    0.50008465E-05
 
Total Energy:                     -192.4889497342 H        -5237.8908 eV
Extrapolated to 0:                -192.4889497342 H        -5237.8908 eV
Total Mermin free energy:         -192.4889497342 H        -5237.8908 eV
Force related energy:             -192.4889497342 H        -5237.8908 eV
Maximal force component:             0.955498E-02
>> Charges saved for restart in charges.bin

--------------------------------------------------------------------------------

***  Geometry step: 69

 iSCC Total electronic   Diff electronic      SCC error    
    1   -0.19301803E+03    0.00000000E+00    0.85253115E-02
    2   -0.19301806E+03   -0.27071573E-04    0.54678839E-02
    3   -0.19301807E+03   -0.15132707E-04    0.79962760E-03
    4   -0.19301807E+03   -0.24958103E-06    0.34256590E-03
    5   -0.19301807E+03   -0.33751832E-07    0.98898628E-04
    6   -0.19301807E+03   -0.23862867E-08    0.57918743E-04
    7   -0.19301807E+03   -0.63135985E-09    0.72564154E-05
 
Total Energy:                     -192.4894630723 H        -5237.9048 eV
Extrapolated to 0:                -192.4894630723 H        -5237.9048 eV
Total Mermin free energy:         -192.4894630723 H        -5237.9048 eV
Force related energy:             -192.4894630723 H        -5237.9048 eV
Maximal force component:             0.350133E-02
>> Charges saved for restart in charges.bin

--------------------------------------------------------------------------------

***  Geometry step: 70

 iSCC Total electronic   Diff electronic      SCC error    
    1   -0.19301798E+03    0.00000000E+00    0.59185827E-02
    2   -0.19301799E+03   -0.56788371E-05    0.37436034E-02
    3   -0.19301799E+03   -0.23547029E-05    0.60439239E-03
    4   -0.19301799E+03   -0.15161385E-06    0.14768116E-03
    5   -0.19301799E+03   -0.77498044E-08    0.48885447E-04
    6   -0.19301799E+03   -0.35623771E-09    0.25114596E-04
    7   -0.19301799E+03   -0.10581402E-09    0.31367517E-05
 
Total Energy:                     -192.4899624615 H        -5237.9184 eV
Extrapolated to 0:                -192.4899624615 H        -5237.9184 eV
Total Mermin free energy:         -192.4899624615 H        -5237.9184 eV
Force related energy:             -192.4899624615 H        -5237.9184 eV
Maximal force component:             0.266372E-02
>> Charges saved for restart in charges.bin

--------------------------------------------------------------------------------

***  Geometry step: 71

 iSCC Total electronic   Diff electronic      SCC error    
    1   -0.19301597E+03    0.00000000E+00    0.99995226E-02
    2   -0.19301598E+03   -0.14270712E-04    0.63640617E-02
    3   -0.19301599E+03   -0.62690768E-05    0.86136605E-03
    4   -0.19301599E+03   -0.38775633E-06    0.23846735E-03
    5   -0.19301599E+03   -0.20555319E-07    0.66592620E-04
    6   -0.19301599E+03   -0.93717745E-09    0.31514230E-04
    7   -0.19301599E+03   -0.27927172E-09    0.53225380E-05
 
Total Energy:                     -192.4901872139 H        -5237.9245 eV
Extrapolated to 0:                -192.4901872139 H        -5237.9245 eV
Total Mermin free energy:         -192.4901872139 H        -5237.9245 eV
Force related energy:             -192.4901872139 H        -5237.9245 eV
Maximal force component:             0.540479E-02
>> Charges saved for restart in charges.bin

--------------------------------------------------------------------------------

***  Geometry step: 72

 iSCC Total electronic   Diff electronic      SCC error    
    1   -0.19301660E+03    0.00000000E+00    0.21542007E-02
    2   -0.19301660E+03   -0.62862949E-06    0.13736264E-02
    3   -0.19301660E+03   -0.28352702E-06    0.16947617E-03
    4   -0.19301660E+03   -0.17048876E-07    0.50177884E-04
    5   -0.19301660E+03   -0.94507868E-09    0.12225176E-04
    6   -0.19301660E+03   -0.35697667E-10    0.34200344E-05
 
Total Energy:                     -192.4902028376 H        -5237.9249 eV
Extrapolated to 0:                -192.4902028376 H        -5237.9249 eV
Total Mermin free energy:         -192.4902028376 H        -5237.9249 eV
Force related energy:             -192.4902028376 H        -5237.9249 eV
Maximal force component:             0.463234E-02
>> Charges saved for restart in charges.bin

--------------------------------------------------------------------------------

***  Geometry step: 73

 iSCC Total electronic   Diff electronic      SCC error    
    1   -0.19302665E+03    0.00000000E+00    0.14617254E-01
    2   -0.19302676E+03   -0.11487535E-03    0.10048357E-01
    3   -0.19302681E+03   -0.45468044E-04    0.37680256E-02
    4   -0.19302681E+03   -0.22212067E-05    0.12809159E-02
    5   -0.19302681E+03   -0.38470515E-06    0.25059564E-03
    6   -0.19302681E+03   -0.90959702E-08    0.10975971E-03
    7   -0.19302681E+03   -0.27621070E-08    0.15301872E-04
    8   -0.19302681E+03   -0.18229684E-09    0.93696807E-05
 
Total Energy:                     -192.4897857220 H        -5237.9136 eV
Extrapolated to 0:                -192.4897857220 H        -5237.9136 eV
Total Mermin free energy:         -192.4897857220 H        -5237.9136 eV
Force related energy:             -192.4897857220 H        -5237.9136 eV
Maximal force component:             0.139730E-01
>> Charges saved for restart in charges.bin

--------------------------------------------------------------------------------

***  Geometry step: 74

 iSCC Total electronic   Diff electronic      SCC error    
    1   -0.19302107E+03    0.00000000E+00    0.89480973E-02
    2   -0.19302112E+03   -0.42022638E-04    0.61125545E-02
    3   -0.19302113E+03   -0.16865033E-04    0.22850219E-02
    4   -0.19302113E+03   -0.86253340E-06    0.79321318E-03
    5   -0.19302113E+03   -0.13652752E-06    0.13716872E-03
    6   -0.19302113E+03   -0.39277097E-08    0.68158798E-04
    7   -0.19302113E+03   -0.83710461E-09    0.93676707E-05
 
Total Energy:                     -192.4905400211 H        -5237.9341 eV
Extrapolated to 0:                -192.4905400211 H        -5237.9341 eV
Total Mermin free energy:         -192.4905400211 H        -5237.9341 eV
Force related energy:             -192.4905400211 H        -5237.9341 eV
Maximal force component:             0.391107E-02
>> Charges saved for restart in charges.bin

--------------------------------------------------------------------------------

***  Geometry step: 75

 iSCC Total electronic   Diff electronic      SCC error    
    1   -0.19302224E+03    0.00000000E+00    0.40910627E-02
    2   -0.19302224E+03   -0.48431691E-05    0.25220758E-02
    3   -0.19302225E+03   -0.20676163E-05    0.67259194E-03
    4   -0.19302225E+03   -0.10131549E-06    0.23803005E-03
    5   -0.19302225E+03   -0.76051663E-08    0.21608451E-04
    6   -0.19302225E+03   -0.73535489E-09    0.11045692E-04
    7   -0.19302225E+03   -0.10498979E-09    0.47805375E-05
 
Total Energy:                     -192.4910381765 H        -5237.9477 eV
Extrapolated to 0:                -192.4910381765 H        -5237.9477 eV
Total Mermin free energy:         -192.4910381765 H        -5237.9477 eV
Force related energy:             -192.4910381765 H        -5237.9477 eV
Maximal force component:             0.293225E-02
>> Charges saved for restart in charges.bin

--------------------------------------------------------------------------------

***  Geometry step: 76

 iSCC Total electronic   Diff electronic      SCC error    
    1   -0.19302245E+03    0.00000000E+00    0.62998975E-02
    2   -0.19302247E+03   -0.12952133E-04    0.38485949E-02
    3   -0.19302247E+03   -0.52134206E-05    0.11055038E-02
    4   -0.19302247E+03   -0.27774291E-06    0.34144566E-03
    5   -0.19302247E+03   -0.16429141E-07    0.43127234E-04
    6   -0.19302247E+03   -0.18304149E-08    0.17679450E-04
    7   -0.19302247E+03   -0.36169467E-09    0.76972647E-05
 
Total Energy:                     -192.4912039640 H        -5237.9522 eV
Extrapolated to 0:                -192.4912039640 H        -5237.9522 eV
Total Mermin free energy:         -192.4912039640 H        -5237.9522 eV
Force related energy:             -192.4912039640 H        -5237.9522 eV
Maximal force component:             0.425989E-02
>> Charges saved for restart in charges.bin

--------------------------------------------------------------------------------

***  Geometry step: 77

 iSCC Total electronic   Diff electronic      SCC error    
    1   -0.19302260E+03    0.00000000E+00    0.16673204E-02
    2   -0.19302260E+03   -0.97709432E-06    0.10148455E-02
    3   -0.19302260E+03   -0.38192096E-06    0.30050309E-03
[...]
Force related energy:             -192.4965012942 H        -5238.0963 eV
Maximal force component:             0.226227E-03
>> Charges saved for restart in charges.bin

--------------------------------------------------------------------------------

***  Geometry step: 278

 iSCC Total electronic   Diff electronic      SCC error    
    1   -0.19302795E+03    0.00000000E+00    0.43417869E-04
    2   -0.19302795E+03   -0.29754688E-09    0.24758776E-04
    3   -0.19302795E+03   -0.10084023E-09    0.78244742E-05
 
Total Energy:                     -192.4965013046 H        -5238.0963 eV
Extrapolated to 0:                -192.4965013046 H        -5238.0963 eV
Total Mermin free energy:         -192.4965013046 H        -5238.0963 eV
Force related energy:             -192.4965013046 H        -5238.0963 eV
Maximal force component:             0.207982E-03
>> Charges saved for restart in charges.bin

--------------------------------------------------------------------------------

***  Geometry step: 279

 iSCC Total electronic   Diff electronic      SCC error    
    1   -0.19302755E+03    0.00000000E+00    0.11108554E-02
    2   -0.19302756E+03   -0.22922103E-06    0.69385739E-03
    3   -0.19302756E+03   -0.10548433E-06    0.12026031E-03
    4   -0.19302756E+03   -0.41817714E-08    0.40764644E-04
    5   -0.19302756E+03   -0.50297899E-09    0.43883899E-05
 
Total Energy:                     -192.4964998310 H        -5238.0963 eV
Extrapolated to 0:                -192.4964998310 H        -5238.0963 eV
Total Mermin free energy:         -192.4964998310 H        -5238.0963 eV
Force related energy:             -192.4964998310 H        -5238.0963 eV
Maximal force component:             0.571220E-03
>> Charges saved for restart in charges.bin

--------------------------------------------------------------------------------

***  Geometry step: 280

 iSCC Total electronic   Diff electronic      SCC error    
    1   -0.19302781E+03    0.00000000E+00    0.71540974E-03
    2   -0.19302781E+03   -0.95699789E-07    0.44702191E-03
    3   -0.19302781E+03   -0.44473211E-07    0.77450729E-04
    4   -0.19302781E+03   -0.17192576E-08    0.26178727E-04
    5   -0.19302781E+03   -0.20472157E-09    0.28254463E-05
 
Total Energy:                     -192.4965019190 H        -5238.0963 eV
Extrapolated to 0:                -192.4965019190 H        -5238.0963 eV
Total Mermin free energy:         -192.4965019190 H        -5238.0963 eV
Force related energy:             -192.4965019190 H        -5238.0963 eV
Maximal force component:             0.154985E-03
>> Charges saved for restart in charges.bin

--------------------------------------------------------------------------------

***  Geometry step: 281

 iSCC Total electronic   Diff electronic      SCC error    
    1   -0.19302791E+03    0.00000000E+00    0.19165201E-03
    2   -0.19302791E+03   -0.62057097E-08    0.13451781E-03
    3   -0.19302791E+03   -0.29538967E-08    0.27409256E-04
    4   -0.19302791E+03   -0.14159696E-09    0.99993666E-05
 
Total Energy:                     -192.4965029158 H        -5238.0964 eV
Extrapolated to 0:                -192.4965029158 H        -5238.0964 eV
Total Mermin free energy:         -192.4965029158 H        -5238.0964 eV
Force related energy:             -192.4965029158 H        -5238.0964 eV
Maximal force component:             0.146350E-03
>> Charges saved for restart in charges.bin

--------------------------------------------------------------------------------

***  Geometry step: 282

 iSCC Total electronic   Diff electronic      SCC error    
    1   -0.19302807E+03    0.00000000E+00    0.31775186E-03
    2   -0.19302807E+03   -0.16239369E-07    0.22360686E-03
    3   -0.19302807E+03   -0.75170590E-08    0.46627173E-04
    4   -0.19302807E+03   -0.40645887E-09    0.16776021E-04
    5   -0.19302807E+03   -0.46867399E-10    0.19999234E-05
 
Total Energy:                     -192.4965036728 H        -5238.0964 eV
Extrapolated to 0:                -192.4965036728 H        -5238.0964 eV
Total Mermin free energy:         -192.4965036728 H        -5238.0964 eV
Force related energy:             -192.4965036728 H        -5238.0964 eV
Maximal force component:             0.254305E-03
>> Charges saved for restart in charges.bin

--------------------------------------------------------------------------------

***  Geometry step: 283

 iSCC Total electronic   Diff electronic      SCC error    
    1   -0.19302833E+03    0.00000000E+00    0.50727835E-03
    2   -0.19302833E+03   -0.43626756E-07    0.35609731E-03
    3   -0.19302833E+03   -0.20481849E-07    0.73368577E-04
    4   -0.19302833E+03   -0.10069243E-08    0.26783599E-04
    5   -0.19302833E+03   -0.11809220E-09    0.32180410E-05
 
Total Energy:                     -192.4965026585 H        -5238.0963 eV
Extrapolated to 0:                -192.4965026585 H        -5238.0963 eV
Total Mermin free energy:         -192.4965026585 H        -5238.0963 eV
Force related energy:             -192.4965026585 H        -5238.0963 eV
Maximal force component:             0.490437E-03
>> Charges saved for restart in charges.bin

--------------------------------------------------------------------------------

***  Geometry step: 284

 iSCC Total electronic   Diff electronic      SCC error    
    1   -0.19302811E+03    0.00000000E+00    0.44259372E-03
    2   -0.19302811E+03   -0.33165151E-07    0.31052887E-03
    3   -0.19302811E+03   -0.15685401E-07    0.63561011E-04
    4   -0.19302811E+03   -0.76036599E-09    0.23038099E-04
    5   -0.19302811E+03   -0.88618890E-10    0.28321658E-05
 
Total Energy:                     -192.4965036974 H        -5238.0964 eV
Extrapolated to 0:                -192.4965036974 H        -5238.0964 eV
Total Mermin free energy:         -192.4965036974 H        -5238.0964 eV
Force related energy:             -192.4965036974 H        -5238.0964 eV
Maximal force component:             0.279390E-03
>> Charges saved for restart in charges.bin

--------------------------------------------------------------------------------

***  Geometry step: 285

 iSCC Total electronic   Diff electronic      SCC error    
    1   -0.19302781E+03    0.00000000E+00    0.58527219E-03
    2   -0.19302781E+03   -0.10809282E-06    0.40243792E-03
    3   -0.19302781E+03   -0.55899903E-07    0.84168920E-04
    4   -0.19302781E+03   -0.18263506E-08    0.23970270E-04
    5   -0.19302781E+03   -0.21003643E-09    0.46102020E-05
 
Total Energy:                     -192.4965036901 H        -5238.0964 eV
Extrapolated to 0:                -192.4965036901 H        -5238.0964 eV
Total Mermin free energy:         -192.4965036901 H        -5238.0964 eV
Force related energy:             -192.4965036901 H        -5238.0964 eV
Maximal force component:             0.471259E-03
>> Charges saved for restart in charges.bin

--------------------------------------------------------------------------------

***  Geometry step: 286

 iSCC Total electronic   Diff electronic      SCC error    
    1   -0.19302796E+03    0.00000000E+00    0.28922275E-03
    2   -0.19302796E+03   -0.27103368E-07    0.20149630E-03
    3   -0.19302796E+03   -0.14099214E-07    0.41605392E-04
    4   -0.19302796E+03   -0.45085358E-09    0.11928801E-04
    5   -0.19302796E+03   -0.51301186E-10    0.24005632E-05
 
Total Energy:                     -192.4965045594 H        -5238.0964 eV
Extrapolated to 0:                -192.4965045594 H        -5238.0964 eV
Total Mermin free energy:         -192.4965045594 H        -5238.0964 eV
Force related energy:             -192.4965045594 H        -5238.0964 eV
Maximal force component:             0.175933E-03
>> Charges saved for restart in charges.bin

--------------------------------------------------------------------------------

***  Geometry step: 287

 iSCC Total electronic   Diff electronic      SCC error    
    1   -0.19302783E+03    0.00000000E+00    0.24214225E-03
    2   -0.19302783E+03   -0.12453711E-07    0.14846512E-03
    3   -0.19302783E+03   -0.68334884E-08    0.18334997E-04
    4   -0.19302783E+03   -0.17854518E-09    0.65777810E-05
 
Total Energy:                     -192.4965057533 H        -5238.0964 eV
Extrapolated to 0:                -192.4965057533 H        -5238.0964 eV
Total Mermin free energy:         -192.4965057533 H        -5238.0964 eV
Force related energy:             -192.4965057533 H        -5238.0964 eV
Maximal force component:             0.166665E-03
>> Charges saved for restart in charges.bin

--------------------------------------------------------------------------------

***  Geometry step: 288

 iSCC Total electronic   Diff electronic      SCC error    
    1   -0.19302761E+03    0.00000000E+00    0.39435772E-03
    2   -0.19302761E+03   -0.32246078E-07    0.24228515E-03
    3   -0.19302761E+03   -0.17599319E-07    0.30631821E-04
    4   -0.19302761E+03   -0.48146376E-09    0.10922842E-04
    5   -0.19302761E+03   -0.23817393E-10    0.29016894E-05
 
Total Energy:                     -192.4965057047 H        -5238.0964 eV
Extrapolated to 0:                -192.4965057047 H        -5238.0964 eV
Total Mermin free energy:         -192.4965057047 H        -5238.0964 eV
Force related energy:             -192.4965057047 H        -5238.0964 eV
Maximal force component:             0.496256E-03
>> Charges saved for restart in charges.bin

--------------------------------------------------------------------------------

***  Geometry step: 289

 iSCC Total electronic   Diff electronic      SCC error    
    1   -0.19302773E+03    0.00000000E+00    0.20028815E-03
    2   -0.19302773E+03   -0.86770058E-08    0.12273538E-03
    3   -0.19302773E+03   -0.47724313E-08    0.15288931E-04
    4   -0.19302773E+03   -0.12516921E-09    0.53792628E-05
 
Total Energy:                     -192.4965060352 H        -5238.0964 eV
Extrapolated to 0:                -192.4965060352 H        -5238.0964 eV
Total Mermin free energy:         -192.4965060352 H        -5238.0964 eV
Force related energy:             -192.4965060352 H        -5238.0964 eV
Maximal force component:             0.315586E-03
>> Charges saved for restart in charges.bin

--------------------------------------------------------------------------------

***  Geometry step: 290

 iSCC Total electronic   Diff electronic      SCC error    
    1   -0.19302793E+03    0.00000000E+00    0.76241494E-03
    2   -0.19302793E+03   -0.58345677E-07    0.47904636E-03
    3   -0.19302793E+03   -0.29840749E-07    0.67455334E-04
    4   -0.19302793E+03   -0.95556629E-09    0.22619229E-04
    5   -0.19302793E+03   -0.13739054E-09    0.68107113E-05
 
Total Energy:                     -192.4965070898 H        -5238.0965 eV
Extrapolated to 0:                -192.4965070898 H        -5238.0965 eV
Total Mermin free energy:         -192.4965070898 H        -5238.0965 eV
Force related energy:             -192.4965070898 H        -5238.0965 eV
Maximal force component:             0.182224E-03
>> Charges saved for restart in charges.bin

--------------------------------------------------------------------------------

***  Geometry step: 291

 iSCC Total electronic   Diff electronic      SCC error    
    1   -0.19302788E+03    0.00000000E+00    0.17228391E-03
    2   -0.19302788E+03   -0.29598084E-08    0.10823954E-03
    3   -0.19302788E+03   -0.15268995E-08    0.15000068E-04
    4   -0.19302788E+03   -0.48686388E-10    0.49664071E-05
 
Total Energy:                     -192.4965071835 H        -5238.0965 eV
Extrapolated to 0:                -192.4965071835 H        -5238.0965 eV
Total Mermin free energy:         -192.4965071835 H        -5238.0965 eV
Force related energy:             -192.4965071835 H        -5238.0965 eV
Maximal force component:             0.135256E-03
>> Charges saved for restart in charges.bin

--------------------------------------------------------------------------------

***  Geometry step: 292

 iSCC Total electronic   Diff electronic      SCC error    
    1   -0.19302779E+03    0.00000000E+00    0.55567991E-03
    2   -0.19302779E+03   -0.24200034E-07    0.36609558E-03
    3   -0.19302779E+03   -0.14747968E-07    0.54971432E-04
    4   -0.19302779E+03   -0.40699888E-09    0.17946095E-04
    5   -0.19302779E+03   -0.39335646E-10    0.36064203E-05
 
Total Energy:                     -192.4965081122 H        -5238.0965 eV
Extrapolated to 0:                -192.4965081122 H        -5238.0965 eV
Total Mermin free energy:         -192.4965081122 H        -5238.0965 eV
Force related energy:             -192.4965081122 H        -5238.0965 eV
Maximal force component:             0.289958E-03
>> Charges saved for restart in charges.bin

--------------------------------------------------------------------------------

***  Geometry step: 293

 iSCC Total electronic   Diff electronic      SCC error    
    1   -0.19302780E+03    0.00000000E+00    0.68032139E-04
    2   -0.19302780E+03   -0.37294967E-09    0.44699095E-04
    3   -0.19302780E+03   -0.23069902E-09    0.63128075E-05
 
Total Energy:                     -192.4965081328 H        -5238.0965 eV
Extrapolated to 0:                -192.4965081328 H        -5238.0965 eV
Total Mermin free energy:         -192.4965081328 H        -5238.0965 eV
Force related energy:             -192.4965081328 H        -5238.0965 eV
Maximal force component:             0.252958E-03
>> Charges saved for restart in charges.bin

--------------------------------------------------------------------------------

***  Geometry step: 294

 iSCC Total electronic   Diff electronic      SCC error    
    1   -0.19302786E+03    0.00000000E+00    0.40985702E-03
    2   -0.19302786E+03   -0.34946140E-07    0.25367593E-03
    3   -0.19302786E+03   -0.16837959E-07    0.66021647E-04
    4   -0.19302786E+03   -0.68922645E-09    0.22673339E-04
    5   -0.19302786E+03   -0.68439476E-10    0.38402788E-05
 
Total Energy:                     -192.4965087817 H        -5238.0965 eV
Extrapolated to 0:                -192.4965087817 H        -5238.0965 eV
Total Mermin free energy:         -192.4965087817 H        -5238.0965 eV
Force related energy:             -192.4965087817 H        -5238.0965 eV
Maximal force component:             0.143870E-03
>> Charges saved for restart in charges.bin

--------------------------------------------------------------------------------

***  Geometry step: 295

 iSCC Total electronic   Diff electronic      SCC error    
    1   -0.19302785E+03    0.00000000E+00    0.96754077E-04
    2   -0.19302785E+03   -0.19115021E-08    0.60013642E-04
    3   -0.19302785E+03   -0.93112362E-09    0.14233194E-04
    4   -0.19302785E+03   -0.38596681E-10    0.52256471E-05
 
Total Energy:                     -192.4965088504 H        -5238.0965 eV
Extrapolated to 0:                -192.4965088504 H        -5238.0965 eV
Total Mermin free energy:         -192.4965088504 H        -5238.0965 eV
Force related energy:             -192.4965088504 H        -5238.0965 eV
Maximal force component:             0.103097E-03
>> Charges saved for restart in charges.bin

--------------------------------------------------------------------------------

***  Geometry step: 296

 iSCC Total electronic   Diff electronic      SCC error    
    1   -0.19302785E+03    0.00000000E+00    0.50296115E-03
    2   -0.19302785E+03   -0.26974334E-07    0.37902065E-03
    3   -0.19302785E+03   -0.12488897E-07    0.13164950E-03
    4   -0.19302785E+03   -0.89605123E-09    0.18348242E-04
    5   -0.19302785E+03   -0.11939960E-09    0.31440387E-05
 
Total Energy:                     -192.4965091720 H        -5238.0965 eV
Extrapolated to 0:                -192.4965091720 H        -5238.0965 eV
Total Mermin free energy:         -192.4965091720 H        -5238.0965 eV
Force related energy:             -192.4965091720 H        -5238.0965 eV
Maximal force component:             0.337923E-03
>> Charges saved for restart in charges.bin

--------------------------------------------------------------------------------

***  Geometry step: 297

 iSCC Total electronic   Diff electronic      SCC error    
    1   -0.19302785E+03    0.00000000E+00    0.17333178E-03
    2   -0.19302785E+03   -0.33411141E-08    0.13069309E-03
    3   -0.19302785E+03   -0.15603518E-08    0.45632615E-04
    4   -0.19302785E+03   -0.11172574E-09    0.66190621E-05
 
Total Energy:                     -192.4965092981 H        -5238.0965 eV
Extrapolated to 0:                -192.4965092981 H        -5238.0965 eV
Total Mermin free energy:         -192.4965092981 H        -5238.0965 eV
Force related energy:             -192.4965092981 H        -5238.0965 eV
Maximal force component:             0.200501E-03
>> Charges saved for restart in charges.bin

--------------------------------------------------------------------------------

***  Geometry step: 298

 iSCC Total electronic   Diff electronic      SCC error    
    1   -0.19302783E+03    0.00000000E+00    0.25593212E-03
    2   -0.19302783E+03   -0.64050028E-08    0.16771484E-03
    3   -0.19302783E+03   -0.34323762E-08    0.28899029E-04
    4   -0.19302783E+03   -0.16501644E-09    0.71000749E-05
 
Total Energy:                     -192.4965097860 H        -5238.0965 eV
Extrapolated to 0:                -192.4965097860 H        -5238.0965 eV
Total Mermin free energy:         -192.4965097860 H        -5238.0965 eV
Force related energy:             -192.4965097860 H        -5238.0965 eV
Maximal force component:             0.887170E-04
>> Charges saved for restart in charges.bin

--------------------------------------------------------------------------------

***  Geometry step: 299

 iSCC Total electronic   Diff electronic      SCC error    
    1   -0.19302778E+03    0.00000000E+00    0.41642899E-03
    2   -0.19302778E+03   -0.16633749E-07    0.27303643E-03
    3   -0.19302778E+03   -0.87795229E-08    0.49305719E-04
    4   -0.19302778E+03   -0.46202331E-09    0.10940888E-04
    5   -0.19302778E+03   -0.44195758E-10    0.30739807E-05
 
Total Energy:                     -192.4965089688 H        -5238.0965 eV
Extrapolated to 0:                -192.4965089688 H        -5238.0965 eV
Total Mermin free energy:         -192.4965089688 H        -5238.0965 eV
Force related energy:             -192.4965089688 H        -5238.0965 eV
Maximal force component:             0.219089E-03
>> Charges saved for restart in charges.bin

--------------------------------------------------------------------------------

***  Geometry step: 300

 iSCC Total electronic   Diff electronic      SCC error    
    1   -0.19302782E+03    0.00000000E+00    0.37705722E-03
    2   -0.19302782E+03   -0.14031912E-07    0.24691877E-03
    3   -0.19302782E+03   -0.75245907E-08    0.43400051E-04
    4   -0.19302782E+03   -0.36328629E-09    0.96745104E-05
 
Total Energy:                     -192.4965097938 H        -5238.0965 eV
Extrapolated to 0:                -192.4965097938 H        -5238.0965 eV
Total Mermin free energy:         -192.4965097938 H        -5238.0965 eV
Force related energy:             -192.4965097938 H        -5238.0965 eV
Maximal force component:             0.766060E-04
>> Charges saved for restart in charges.bin

Geometry converged
 
--------------------------------------------------------------------------------
DFTB+ running times                          cpu [s]             wall clock [s]
--------------------------------------------------------------------------------
Pre-SCC initialisation                 +     0.49  (  0.5%)      0.51  (  0.5%)
SCC                                    +    89.40  ( 96.5%)     98.61  ( 95.3%)
Post-SCC processing                    +     2.72  (  2.9%)      4.23  (  4.1%)
--------------------------------------------------------------------------------
Missing                                +     0.02  (  0.0%)      0.11  (  0.1%)
Total                                  =    92.62  (100.0%)    103.46  (100.0%)
--------------------------------------------------------------------------------
