   62
Geometry Step: 76
   Si     11.70600350     20.66587617     28.04045948      3.83319852
   Si     14.51609468     13.54143065     26.64670850      3.83319924
   Si     18.53391807     19.81863129     24.39909747      3.83320134
   Si     16.48527273     18.05395944     29.28893597      4.01832346
   Si     12.82477278     20.69707493     30.12731661      3.97528257
   Si     15.63361845     13.57570851     28.73418521      3.97528368
   Si     19.64967691     19.85013259     26.48756359      3.97528399
   Si     17.62801811     18.08700728     31.42376217      4.09264892
   Si     13.16847400     17.11994531     27.37617986      3.95595554
   Si     14.96509973     21.65465859     29.80829334      3.82914046
   Si     17.80763474     14.44792475     28.39855348      3.82913525
   Si     19.82602388     18.97590407     31.30742710      3.73397348
   Si     16.37730929     18.90567784     24.71758835      3.94833952
   Si     14.26623688     17.13577233     29.50856007      4.07385442
   Si     16.52392357     16.70352656     25.58662757      3.95594765
   Si     14.35360500     14.87653969     30.24055083      3.82913983
   Si     18.41781865     21.22614209     27.96704449      3.82913184
   Si     16.51906576     19.38751255     33.07110828      3.73395685
   Si     15.14296564     20.20477675     26.27158824      3.95595239
   Si     12.93276998     18.47923630     30.94540910      3.82913281
   Si     19.83934345     17.62206639     27.26184150      3.82914052
   Si     17.87936323     15.93629214     32.39645049      3.73397015
   Si     12.95480229     19.33039260     26.54284898      3.94834052
   Si     17.68544509     16.71143798     27.68499925      4.07385841
   Si     14.36334596     15.75921506     25.84423050      3.94833900
   Si     16.27821928     20.27922408     28.38299253      4.07385528
    H     10.32552531     20.09770590     28.20014959      1.06583467
    H     11.58140925     22.06004681     27.49751391      1.06583139
    H     15.27506056     12.69563686     25.66556925      1.06583289
    H     13.14063825     12.96052847     26.80389642      1.06583339
    H     18.42165854     21.21129166     23.84961473      1.06583326
    H     19.30013335     18.98414925     23.41391609      1.06583289
    H     12.04871366     21.54327584     31.10333086      1.05392502
    H     15.74512904     12.17164636     29.27000318      1.05392543
    H     21.03020439     20.42871777     26.31347067      1.05392524
    H     11.79550110     16.53584394     27.59375766      1.05669080
    H     14.80306886     22.99455570     29.14738930      1.06781204
    H     15.66127789     21.87319264     31.11968165      1.06087497
    H     18.63614066     14.33072972     29.64434400      1.06087796
    H     18.48789877     13.65258422     27.32010248      1.06780899
    H     20.69593550     18.16223037     30.39955608      1.07587611
    H     20.41242492     18.93806764     32.68703660      1.08035412
    H     19.81515273     20.39732080     30.83529324      1.07590686
    H     15.62660451     18.86492115     23.41244529      1.05235204
    H     17.33049834     15.84894706     24.64179600      1.05668985
    H     14.90709332     14.79337101     31.63300255      1.06087256
    H     12.95031445     14.33982728     30.27313800      1.06780815
    H     18.21874457     22.57073105     27.32611252      1.06780623
    H     19.16065100     21.43866413     29.25360534      1.06087169
    H     16.41077812     20.82132916     32.65197728      1.07589019
    H     17.32743691     19.32098698     34.33238754      1.08036012
    H     15.14932633     18.85322866     33.35664084      1.07588584
    H     15.05252669     21.62444645     25.77166315      1.05669015
    H     13.46729848     18.44490000     32.34729167      1.06087691
    H     11.54479689     17.90368295     30.97067419      1.06780547
    H     20.69548571     17.54755073     28.49212697      1.06087518
    H     20.49755789     16.79267845     26.19541911      1.06781333
    H     18.69152916     15.03310158     31.52027778      1.07587807
    H     16.55007686     15.29934707     32.66245616      1.07590552
    H     18.59669275     16.10191673     33.70282819      1.08035366
    H     12.28041350     19.28012772     25.19700742      1.05235150
    H     13.65752005     15.78861193     24.51398136      1.05235184
