|===============================================================================
|
|  DFTB+ release 19.1
|
|  Copyright (C) 2006 - 2019  DFTB+ developers group
|
|===============================================================================
|
|  When publishing results obtained with DFTB+, please cite the following
|  reference:
|
|  * B. Aradi, B. Hourahine and T. Frauenheim,
|    DFTB+, a Sparse Matrix-Based Implementation of the DFTB Method,
|    J. Phys. Chem. A, 111 5678 (2007).  [doi: 10.1021/jp070186p]
|
|  You should also cite additional publications crediting the parametrization
|  data you use. Please consult the documentation of the SK-files for the
|  references.
|
|===============================================================================

Reading input file 'dftb_in.hsd'
Parser version: 7

--------------------------------------------------------------------------------
***  Converting input from version  4 to version  7 ...
WARNING!
-> Adding legacy step size for finite difference differentiation
Path: dftbplusinput/Hamiltonian/DFTB/Differentiation

***  Done.

Reading SK-files:
Done.


Processed input in HSD format written to 'dftb_pin.hsd'

Starting initialization...
--------------------------------------------------------------------------------
OpenMP threads:              1
Chosen random seed:          1869854139
Mode:                        2nd derivatives calculation
Mode:                        Calculated for atoms:
 1 2 3 4 5 6
 7 8 9 10 11 12
 13 14 15 16 17 18
 19 20 21 22 23 24
 25 26 27 28 29 30
 31 32 33 34 35 36
 37 38 39 40 41 42
 43 44 45 46 47 48
 49 50 51 52 53 54
 55 56 57 58 59 60
 61 62
Self consistent charges:     Yes
SCC-tolerance:                 0.100000E-04
Max. scc iterations:                    100
Shell resolved Hubbard:      No
Spin polarisation:           No
Nr. of up electrons:            70.000000
Nr. of down electrons:          70.000000
Periodic boundaries:         No
Electronic solver:           Relatively robust
Mixer:                       Broyden mixer
Mixing parameter:                  0.200000
Maximal SCC-cycles:                     100
Nr. of chrg. vec. in memory:              0
Electronic temperature:        0.100000E-07 H      0.272114E-06 eV
Initial charges:             Set automatically (system chrg:   0.000E+00)
Included shells:            Si:  s, p, d
                             H:  s
Using Lennard-Jones dispersion corrections
Extra options:
                             Mulliken analysis
Force type                   original

--------------------------------------------------------------------------------

***  Geometry step: 0

 iSCC Total electronic   Diff electronic      SCC error    
    1   -0.45593325E+02    0.00000000E+00    0.32513864E+00
    2   -0.45611380E+02   -0.18054869E-01    0.24796206E+00
    3   -0.45616800E+02   -0.54200765E-02    0.81219137E-01
    4   -0.45618052E+02   -0.12516055E-02    0.32646135E-01
    5   -0.45618093E+02   -0.41122692E-04    0.55249707E-02
    6   -0.45618094E+02   -0.15294063E-05    0.16766655E-02
    7   -0.45618095E+02   -0.63848691E-06    0.31375277E-03
    8   -0.45618095E+02   -0.41535799E-07    0.57438461E-04
    9   -0.45618095E+02   -0.99907282E-09    0.22329162E-04
   10   -0.45618095E+02   -0.22216540E-09    0.87904453E-05
 
Total Energy:                      -45.2477524235 H        -1231.2540 eV
Extrapolated to 0:                 -45.2477524235 H        -1231.2540 eV
Total Mermin free energy:          -45.2477524235 H        -1231.2540 eV
Force related energy:              -45.2477524235 H        -1231.2540 eV

--------------------------------------------------------------------------------

***  Geometry step: 1

 iSCC Total electronic   Diff electronic      SCC error    
    1   -0.45618094E+02    0.00000000E+00    0.44052510E-04
    2   -0.45618094E+02   -0.59969807E-10    0.29415769E-04
    3   -0.45618094E+02   -0.42192028E-10    0.42447076E-05
 
Total Energy:                      -45.2477524281 H        -1231.2540 eV
Extrapolated to 0:                 -45.2477524281 H        -1231.2540 eV
Total Mermin free energy:          -45.2477524281 H        -1231.2540 eV
Force related energy:              -45.2477524281 H        -1231.2540 eV

--------------------------------------------------------------------------------

***  Geometry step: 2

 iSCC Total electronic   Diff electronic      SCC error    
    1   -0.45618094E+02    0.00000000E+00    0.32242994E-04
    2   -0.45618094E+02   -0.41552539E-10    0.21096042E-04
    3   -0.45618094E+02   -0.29558578E-10    0.16150513E-05
 
Total Energy:                      -45.2477524255 H        -1231.2540 eV
Extrapolated to 0:                 -45.2477524255 H        -1231.2540 eV
Total Mermin free energy:          -45.2477524255 H        -1231.2540 eV
Force related energy:              -45.2477524255 H        -1231.2540 eV

--------------------------------------------------------------------------------

***  Geometry step: 3

 iSCC Total electronic   Diff electronic      SCC error    
    1   -0.45618095E+02    0.00000000E+00    0.45491280E-04
    2   -0.45618095E+02   -0.68965278E-10    0.30069827E-04
    3   -0.45618095E+02   -0.48054005E-10    0.30647922E-05
 
Total Energy:                      -45.2477524261 H        -1231.2540 eV
Extrapolated to 0:                 -45.2477524261 H        -1231.2540 eV
Total Mermin free energy:          -45.2477524261 H        -1231.2540 eV
Force related energy:              -45.2477524261 H        -1231.2540 eV

--------------------------------------------------------------------------------

***  Geometry step: 4

 iSCC Total electronic   Diff electronic      SCC error    
    1   -0.45618094E+02    0.00000000E+00    0.23092436E-04
    2   -0.45618094E+02   -0.21685764E-10    0.15101734E-04
    3   -0.45618094E+02   -0.99120712E-11    0.19858718E-05
 
Total Energy:                      -45.2477524206 H        -1231.2540 eV
Extrapolated to 0:                 -45.2477524206 H        -1231.2540 eV
Total Mermin free energy:          -45.2477524206 H        -1231.2540 eV
Force related energy:              -45.2477524206 H        -1231.2540 eV

--------------------------------------------------------------------------------

***  Geometry step: 5

 iSCC Total electronic   Diff electronic      SCC error    
    1   -0.45618094E+02    0.00000000E+00    0.33602340E-04
    2   -0.45618094E+02   -0.39989345E-10    0.21943878E-04
    3   -0.45618094E+02   -0.17941204E-10    0.25238518E-05
 
Total Energy:                      -45.2477524316 H        -1231.2540 eV
Extrapolated to 0:                 -45.2477524316 H        -1231.2540 eV
Total Mermin free energy:          -45.2477524316 H        -1231.2540 eV
Force related energy:              -45.2477524316 H        -1231.2540 eV

--------------------------------------------------------------------------------

***  Geometry step: 6

 iSCC Total electronic   Diff electronic      SCC error    
    1   -0.45618095E+02    0.00000000E+00    0.22605968E-04
    2   -0.45618095E+02   -0.32883918E-10    0.14972092E-04
    3   -0.45618095E+02   -0.18182789E-10    0.15600522E-05
 
Total Energy:                      -45.2477524230 H        -1231.2540 eV
Extrapolated to 0:                 -45.2477524230 H        -1231.2540 eV
Total Mermin free energy:          -45.2477524230 H        -1231.2540 eV
Force related energy:              -45.2477524230 H        -1231.2540 eV

--------------------------------------------------------------------------------

***  Geometry step: 7

 iSCC Total electronic   Diff electronic      SCC error    
    1   -0.45618094E+02    0.00000000E+00    0.44338154E-04
    2   -0.45618094E+02   -0.72368778E-10    0.29230752E-04
    3   -0.45618094E+02   -0.50626170E-10    0.28068182E-05
 
Total Energy:                      -45.2477524285 H        -1231.2540 eV
Extrapolated to 0:                 -45.2477524285 H        -1231.2540 eV
Total Mermin free energy:          -45.2477524285 H        -1231.2540 eV
Force related energy:              -45.2477524285 H        -1231.2540 eV

--------------------------------------------------------------------------------

***  Geometry step: 8

 iSCC Total electronic   Diff electronic      SCC error    
    1   -0.45618095E+02    0.00000000E+00    0.31176757E-04
    2   -0.45618095E+02   -0.33473668E-10    0.20638064E-04
    3   -0.45618095E+02   -0.22637892E-10    0.28276353E-05
 
Total Energy:                      -45.2477524265 H        -1231.2540 eV
Extrapolated to 0:                 -45.2477524265 H        -1231.2540 eV
Total Mermin free energy:          -45.2477524265 H        -1231.2540 eV
Force related energy:              -45.2477524265 H        -1231.2540 eV

--------------------------------------------------------------------------------

***  Geometry step: 9

 iSCC Total electronic   Diff electronic      SCC error    
    1   -0.45618094E+02    0.00000000E+00    0.37849719E-04
    2   -0.45618094E+02   -0.52594373E-10    0.24598136E-04
    3   -0.45618094E+02   -0.31000980E-10    0.38997701E-05
 
Total Energy:                      -45.2477524254 H        -1231.2540 eV
Extrapolated to 0:                 -45.2477524254 H        -1231.2540 eV
Total Mermin free energy:          -45.2477524254 H        -1231.2540 eV
Force related energy:              -45.2477524254 H        -1231.2540 eV

--------------------------------------------------------------------------------

***  Geometry step: 10

 iSCC Total electronic   Diff electronic      SCC error    
    1   -0.45618095E+02    0.00000000E+00    0.28407815E-04
    2   -0.45618095E+02   -0.34170000E-10    0.18810897E-04
    3   -0.45618095E+02   -0.22069457E-10    0.29035415E-05
 
Total Energy:                      -45.2477524207 H        -1231.2540 eV
Extrapolated to 0:                 -45.2477524207 H        -1231.2540 eV
Total Mermin free energy:          -45.2477524207 H        -1231.2540 eV
Force related energy:              -45.2477524207 H        -1231.2540 eV

--------------------------------------------------------------------------------

***  Geometry step: 11

 iSCC Total electronic   Diff electronic      SCC error    
    1   -0.45618094E+02    0.00000000E+00    0.34708133E-04
    2   -0.45618094E+02   -0.46689763E-10    0.22646399E-04
    3   -0.45618094E+02   -0.27995384E-10    0.29081347E-05
 
Total Energy:                      -45.2477524313 H        -1231.2540 eV
Extrapolated to 0:                 -45.2477524313 H        -1231.2540 eV
Total Mermin free energy:          -45.2477524313 H        -1231.2540 eV
Force related energy:              -45.2477524313 H        -1231.2540 eV

--------------------------------------------------------------------------------

***  Geometry step: 12

 iSCC Total electronic   Diff electronic      SCC error    
    1   -0.45618094E+02    0.00000000E+00    0.17704121E-04
    2   -0.45618094E+02   -0.27547742E-10    0.11514458E-04
    3   -0.45618094E+02   -0.13272938E-10    0.18259294E-05
 
Total Energy:                      -45.2477524229 H        -1231.2540 eV
Extrapolated to 0:                 -45.2477524229 H        -1231.2540 eV
Total Mermin free energy:          -45.2477524229 H        -1231.2540 eV
Force related energy:              -45.2477524229 H        -1231.2540 eV

--------------------------------------------------------------------------------

***  Geometry step: 13

 iSCC Total electronic   Diff electronic      SCC error    
    1   -0.45618095E+02    0.00000000E+00    0.35024023E-04
    2   -0.45618095E+02   -0.44394710E-10    0.22823366E-04
    3   -0.45618095E+02   -0.21366020E-10    0.33001410E-05
 
Total Energy:                      -45.2477524293 H        -1231.2540 eV
Extrapolated to 0:                 -45.2477524293 H        -1231.2540 eV
Total Mermin free energy:          -45.2477524293 H        -1231.2540 eV
Force related energy:              -45.2477524293 H        -1231.2540 eV

--------------------------------------------------------------------------------

***  Geometry step: 14

 iSCC Total electronic   Diff electronic      SCC error    
    1   -0.45618094E+02    0.00000000E+00    0.24538234E-04
    2   -0.45618094E+02   -0.28705927E-10    0.15719732E-04
    3   -0.45618094E+02   -0.14019008E-10    0.24485740E-05
 
Total Energy:                      -45.2477524254 H        -1231.2540 eV
Extrapolated to 0:                 -45.2477524254 H        -1231.2540 eV
Total Mermin free energy:          -45.2477524254 H        -1231.2540 eV
Force related energy:              -45.2477524254 H        -1231.2540 eV

--------------------------------------------------------------------------------

***  Geometry step: 15

 iSCC Total electronic   Diff electronic      SCC error    
    1   -0.45618095E+02    0.00000000E+00    0.44657486E-04
    2   -0.45618095E+02   -0.75544904E-10    0.29395718E-04
    3   -0.45618095E+02   -0.52907012E-10    0.26194867E-05
 
Total Energy:                      -45.2477524261 H        -1231.2540 eV
Extrapolated to 0:                 -45.2477524261 H        -1231.2540 eV
Total Mermin free energy:          -45.2477524261 H        -1231.2540 eV
Force related energy:              -45.2477524261 H        -1231.2540 eV

--------------------------------------------------------------------------------

***  Geometry step: 16

 iSCC Total electronic   Diff electronic      SCC error    
    1   -0.45618095E+02    0.00000000E+00    0.29880089E-04
    2   -0.45618095E+02   -0.33615777E-10    0.19736102E-04
    3   -0.45618095E+02   -0.22176039E-10    0.21881173E-05
 
Total Energy:                      -45.2477524210 H        -1231.2540 eV
Extrapolated to 0:                 -45.2477524210 H        -1231.2540 eV
Total Mermin free energy:          -45.2477524210 H        -1231.2540 eV
Force related energy:              -45.2477524210 H        -1231.2540 eV

--------------------------------------------------------------------------------

***  Geometry step: 17

 iSCC Total electronic   Diff electronic      SCC error    
    1   -0.45618094E+02    0.00000000E+00    0.35367622E-04
    2   -0.45618094E+02   -0.56694205E-10    0.22755365E-04
    3   -0.45618094E+02   -0.35839776E-10    0.43876910E-05
 
Total Energy:                      -45.2477524309 H        -1231.2540 eV
Extrapolated to 0:                 -45.2477524309 H        -1231.2540 eV
Total Mermin free energy:          -45.2477524309 H        -1231.2540 eV
Force related energy:              -45.2477524309 H        -1231.2540 eV

--------------------------------------------------------------------------------

***  Geometry step: 18

 iSCC Total electronic   Diff electronic      SCC error    
    1   -0.45618094E+02    0.00000000E+00    0.19754112E-04
    2   -0.45618094E+02   -0.28116176E-10    0.11992897E-04
    3   -0.45618094E+02   -0.13763213E-10    0.20910098E-05
 
Total Energy:                      -45.2477524213 H        -1231.2540 eV
Extrapolated to 0:                 -45.2477524213 H        -1231.2540 eV
Total Mermin free energy:          -45.2477524213 H        -1231.2540 eV
Force related energy:              -45.2477524213 H        -1231.2540 eV

--------------------------------------------------------------------------------

***  Geometry step: 19

 iSCC Total electronic   Diff electronic      SCC error    
    1   -0.45618094E+02    0.00000000E+00    0.38398762E-04
    2   -0.45618094E+02   -0.46796345E-10    0.23443560E-04
    3   -0.45618094E+02   -0.18445689E-10    0.26739772E-05
 
Total Energy:                      -45.2477524311 H        -1231.2540 eV
Extrapolated to 0:                 -45.2477524311 H        -1231.2540 eV
Total Mermin free energy:          -45.2477524311 H        -1231.2540 eV
Force related energy:              -45.2477524311 H        -1231.2540 eV

--------------------------------------------------------------------------------

***  Geometry step: 20

 iSCC Total electronic   Diff electronic      SCC error    
    1   -0.45618094E+02    0.00000000E+00    0.25996608E-04
    2   -0.45618094E+02   -0.25480063E-10    0.15599774E-04
    3   -0.45618094E+02   -0.92654773E-11    0.18383751E-05
 
Total Energy:                      -45.2477524261 H        -1231.2540 eV
Extrapolated to 0:                 -45.2477524261 H        -1231.2540 eV
Total Mermin free energy:          -45.2477524261 H        -1231.2540 eV
Force related energy:              -45.2477524261 H        -1231.2540 eV

--------------------------------------------------------------------------------

***  Geometry step: 21

 iSCC Total electronic   Diff electronic      SCC error    
    1   -0.45618094E+02    0.00000000E+00    0.37947771E-04
    2   -0.45618094E+02   -0.47165827E-10    0.23223604E-04
    3   -0.45618094E+02   -0.17259083E-10    0.25258000E-05
 
Total Energy:                      -45.2477524264 H        -1231.2540 eV
Extrapolated to 0:                 -45.2477524264 H        -1231.2540 eV
Total Mermin free energy:          -45.2477524264 H        -1231.2540 eV
Force related energy:              -45.2477524264 H        -1231.2540 eV

--------------------------------------------------------------------------------

***  Geometry step: 22

 iSCC Total electronic   Diff electronic      SCC error    
    1   -0.45618094E+02    0.00000000E+00    0.24329996E-04
    2   -0.45618094E+02   -0.24726887E-10    0.14706514E-04
    3   -0.45618094E+02   -0.98054898E-11    0.19393707E-05
 
Total Energy:                      -45.2477524171 H        -1231.2540 eV
Extrapolated to 0:                 -45.2477524171 H        -1231.2540 eV
Total Mermin free energy:          -45.2477524171 H        -1231.2540 eV
Force related energy:              -45.2477524171 H        -1231.2540 eV

--------------------------------------------------------------------------------

***  Geometry step: 23

 iSCC Total electronic   Diff electronic      SCC error    
    1   -0.45618094E+02    0.00000000E+00    0.36068222E-04
    2   -0.45618094E+02   -0.36955328E-10    0.22400276E-04
    3   -0.45618094E+02   -0.18637536E-10    0.25332999E-05
 
Total Energy:                      -45.2477524354 H        -1231.2540 eV
Extrapolated to 0:                 -45.2477524354 H        -1231.2540 eV
Total Mermin free energy:          -45.2477524354 H        -1231.2540 eV
Force related energy:              -45.2477524354 H        -1231.2540 eV

--------------------------------------------------------------------------------

***  Geometry step: 24

 iSCC Total electronic   Diff electronic      SCC error    
    1   -0.45618095E+02    0.00000000E+00    0.17776435E-04
    2   -0.45618095E+02   -0.19142021E-10    0.12188199E-04
    3   -0.45618095E+02   -0.97273301E-11    0.20579921E-05
 
Total Energy:                      -45.2477524259 H        -1231.2540 eV
Extrapolated to 0:                 -45.2477524259 H        -1231.2540 eV
Total Mermin free energy:          -45.2477524259 H        -1231.2540 eV
Force related energy:              -45.2477524259 H        -1231.2540 eV

--------------------------------------------------------------------------------

***  Geometry step: 25

 iSCC Total electronic   Diff electronic      SCC error    
    1   -0.45618094E+02    0.00000000E+00    0.36871011E-04
    2   -0.45618094E+02   -0.41445958E-10    0.25234659E-04
    3   -0.45618094E+02   -0.22708946E-10    0.42372202E-05
 
Total Energy:                      -45.2477524263 H        -1231.2540 eV
Extrapolated to 0:                 -45.2477524263 H        -1231.2540 eV
Total Mermin free energy:          -45.2477524263 H        -1231.2540 eV
Force related energy:              -45.2477524263 H        -1231.2540 eV

--------------------------------------------------------------------------------

***  Geometry step: 26

 iSCC Total electronic   Diff electronic      SCC error    
    1   -0.45618094E+02    0.00000000E+00    0.24279861E-04
    2   -0.45618094E+02   -0.19753088E-10    0.16579286E-04
    3   -0.45618094E+02   -0.71835871E-11    0.26700773E-05
 
Total Energy:                      -45.2477524286 H        -1231.2540 eV
Extrapolated to 0:                 -45.2477524286 H        -1231.2540 eV
Total Mermin free energy:          -45.2477524286 H        -1231.2540 eV
Force related energy:              -45.2477524286 H        -1231.2540 eV

--------------------------------------------------------------------------------

***  Geometry step: 27

 iSCC Total electronic   Diff electronic      SCC error    
    1   -0.45618095E+02    0.00000000E+00    0.37837648E-04
    2   -0.45618095E+02   -0.48522963E-10    0.25813795E-04
    3   -0.45618095E+02   -0.25003999E-10    0.44910579E-05
 
Total Energy:                      -45.2477524235 H        -1231.2540 eV
Extrapolated to 0:                 -45.2477524235 H        -1231.2540 eV
Total Mermin free energy:          -45.2477524235 H        -1231.2540 eV
Force related energy:              -45.2477524235 H        -1231.2540 eV

--------------------------------------------------------------------------------

***  Geometry step: 28

 iSCC Total electronic   Diff electronic      SCC error    
    1   -0.45618094E+02    0.00000000E+00    0.29952157E-04
    2   -0.45618094E+02   -0.36351366E-10    0.19709422E-04
    3   -0.45618094E+02   -0.21969981E-10    0.28585536E-05
 
Total Energy:                      -45.2477524328 H        -1231.2540 eV
Extrapolated to 0:                 -45.2477524328 H        -1231.2540 eV
Total Mermin free energy:          -45.2477524328 H        -1231.2540 eV
Force related energy:              -45.2477524328 H        -1231.2540 eV

--------------------------------------------------------------------------------

***  Geometry step: 29

 iSCC Total electronic   Diff electronic      SCC error    
    1   -0.45618095E+02    0.00000000E+00    0.35546891E-04
    2   -0.45618095E+02   -0.46313176E-10    0.24340193E-04
    3   -0.45618095E+02   -0.29203306E-10    0.39047441E-05
 
Total Energy:                      -45.2477524192 H        -1231.2540 eV
Extrapolated to 0:                 -45.2477524192 H        -1231.2540 eV
Total Mermin free energy:          -45.2477524192 H        -1231.2540 eV
Force related energy:              -45.2477524192 H        -1231.2540 eV

--------------------------------------------------------------------------------

***  Geometry step: 30

 iSCC Total electronic   Diff electronic      SCC error    
    1   -0.45618094E+02    0.00000000E+00    0.18438024E-04
    2   -0.45618094E+02   -0.22680524E-10    0.12759794E-04
    3   -0.45618094E+02   -0.11674217E-10    0.19970802E-05
 
Total Energy:                      -45.2477524285 H        -1231.2540 eV
Extrapolated to 0:                 -45.2477524285 H        -1231.2540 eV
Total Mermin free energy:          -45.2477524285 H        -1231.2540 eV
Force related energy:              -45.2477524285 H        -1231.2540 eV

--------------------------------------------------------------------------------

***  Geometry step: 31

 iSCC Total electronic   Diff electronic      SCC error    
    1   -0.45618094E+02    0.00000000E+00    0.35308198E-04
    2   -0.45618094E+02   -0.33011816E-10    0.24385003E-04
    3   -0.45618094E+02   -0.12789769E-10    0.36972502E-05
 
Total Energy:                      -45.2477524238 H        -1231.2540 eV
Extrapolated to 0:                 -45.2477524238 H        -1231.2540 eV
Total Mermin free energy:          -45.2477524238 H        -1231.2540 eV
Force related energy:              -45.2477524238 H        -1231.2540 eV

--------------------------------------------------------------------------------

***  Geometry step: 32

 iSCC Total electronic   Diff electronic      SCC error    
    1   -0.45618095E+02    0.00000000E+00    0.25553078E-04
    2   -0.45618095E+02   -0.29764635E-10    0.17165101E-04
    3   -0.45618095E+02   -0.14964030E-10    0.34630469E-05
 
Total Energy:                      -45.2477524218 H        -1231.2540 eV
Extrapolated to 0:                 -45.2477524218 H        -1231.2540 eV
Total Mermin free energy:          -45.2477524218 H        -1231.2540 eV
Force related energy:              -45.2477524218 H        -1231.2540 eV

--------------------------------------------------------------------------------

***  Geometry step: 33

 iSCC Total electronic   Diff electronic      SCC error    
    1   -0.45618094E+02    0.00000000E+00    0.45573130E-04
    2   -0.45618094E+02   -0.71509021E-10    0.30023202E-04
    3   -0.45618094E+02   -0.46661341E-10    0.40768928E-05
 
Total Energy:                      -45.2477524299 H        -1231.2540 eV
Extrapolated to 0:                 -45.2477524299 H        -1231.2540 eV
Total Mermin free energy:          -45.2477524299 H        -1231.2540 eV
Force related energy:              -45.2477524299 H        -1231.2540 eV

--------------------------------------------------------------------------------

***  Geometry step: 34

 iSCC Total electronic   Diff electronic      SCC error    
    1   -0.45618094E+02    0.00000000E+00    0.24425877E-04
    2   -0.45618094E+02   -0.21486812E-10    0.16749804E-04
    3   -0.45618094E+02   -0.10800250E-10    0.28888760E-05
 
Total Energy:                      -45.2477524316 H        -1231.2540 eV
Extrapolated to 0:                 -45.2477524316 H        -1231.2540 eV
Total Mermin free energy:          -45.2477524316 H        -1231.2540 eV
Force related energy:              -45.2477524316 H        -1231.2540 eV

--------------------------------------------------------------------------------

***  Geometry step: 35

 iSCC Total electronic   Diff electronic      SCC error    
    1   -0.45618094E+02    0.00000000E+00    0.34434931E-04
    2   -0.45618094E+02   -0.35264236E-10    0.23671044E-04
    3   -0.45618094E+02   -0.17955415E-10    0.34986504E-05
 
Total Energy:                      -45.2477524206 H        -1231.2540 eV
Extrapolated to 0:                 -45.2477524206 H        -1231.2540 eV
Total Mermin free energy:          -45.2477524206 H        -1231.2540 eV
Force related energy:              -45.2477524206 H        -1231.2540 eV

--------------------------------------------------------------------------------

***  Geometry step: 36

 iSCC Total electronic   Diff electronic      SCC error    
    1   -0.45618094E+02    0.00000000E+00    0.22722141E-04
    2   -0.45618094E+02   -0.30397018E-10    0.15004044E-04
    3   -0.45618094E+02   -0.17131185E-10    0.22328529E-05
 
Total Energy:                      -45.2477524320 H        -1231.2540 eV
Extrapolated to 0:                 -45.2477524320 H        -1231.2540 eV
Total Mermin free energy:          -45.2477524320 H        -1231.2540 eV
Force related energy:              -45.2477524320 H        -1231.2540 eV

--------------------------------------------------------------------------------

***  Geometry step: 37

 iSCC Total electronic   Diff electronic      SCC error    
    1   -0.45618095E+02    0.00000000E+00    0.45166939E-04
    2   -0.45618095E+02   -0.70130568E-10    0.29765143E-04
    3   -0.45618095E+02   -0.45716320E-10    0.41662118E-05
 
Total Energy:                      -45.2477524197 H        -1231.2540 eV
Extrapolated to 0:                 -45.2477524197 H        -1231.2540 eV
Total Mermin free energy:          -45.2477524197 H        -1231.2540 eV
Force related energy:              -45.2477524197 H        -1231.2540 eV

--------------------------------------------------------------------------------

***  Geometry step: 38

 iSCC Total electronic   Diff electronic      SCC error    
    1   -0.45618094E+02    0.00000000E+00    0.32067194E-04
    2   -0.45618094E+02   -0.37346126E-10    0.21031970E-04
    3   -0.45618094E+02   -0.24087399E-10    0.29194944E-05
 
Total Energy:                      -45.2477524279 H        -1231.2540 eV
Extrapolated to 0:                 -45.2477524279 H        -1231.2540 eV
Total Mermin free energy:          -45.2477524279 H        -1231.2540 eV
Force related energy:              -45.2477524279 H        -1231.2540 eV

--------------------------------------------------------------------------------

***  Geometry step: 39

 iSCC Total electronic   Diff electronic      SCC error    
    1   -0.45618094E+02    0.00000000E+00    0.37423072E-04
    2   -0.45618094E+02   -0.38312464E-10    0.25664799E-04
    3   -0.45618094E+02   -0.17962520E-10    0.42585408E-05
 
Total Energy:                      -45.2477524243 H        -1231.2540 eV
Extrapolated to 0:                 -45.2477524243 H        -1231.2540 eV
Total Mermin free energy:          -45.2477524243 H        -1231.2540 eV
Force related energy:              -45.2477524243 H        -1231.2540 eV

--------------------------------------------------------------------------------

***  Geometry step: 40

 iSCC Total electronic   Diff electronic      SCC error    
    1   -0.45618094E+02    0.00000000E+00    0.22198253E-04
    2   -0.45618094E+02   -0.21067592E-10    0.15296634E-04
    3   -0.45618094E+02   -0.82991392E-11    0.22279117E-05
 
Total Energy:                      -45.2477524296 H        -1231.2540 eV
Extrapolated to 0:                 -45.2477524296 H        -1231.2540 eV
Total Mermin free energy:          -45.2477524296 H        -1231.2540 eV
Force related energy:              -45.2477524296 H        -1231.2540 eV

--------------------------------------------------------------------------------

***  Geometry step: 41

 iSCC Total electronic   Diff electronic      SCC error    
    1   -0.45618094E+02    0.00000000E+00    0.33438883E-04
    2   -0.45618094E+02   -0.29864111E-10    0.23306341E-04
    3   -0.45618094E+02   -0.14217960E-10    0.30625487E-05
 
Total Energy:                      -45.2477524227 H        -1231.2540 eV
Extrapolated to 0:                 -45.2477524227 H        -1231.2540 eV
Total Mermin free energy:          -45.2477524227 H        -1231.2540 eV
Force related energy:              -45.2477524227 H        -1231.2540 eV

--------------------------------------------------------------------------------

***  Geometry step: 42

 iSCC Total electronic   Diff electronic      SCC error    
    1   -0.45618094E+02    0.00000000E+00    0.18680078E-04
    2   -0.45618094E+02   -0.17784885E-10    0.13560767E-04
    3   -0.45618094E+02   -0.83559826E-11    0.22482502E-05
 
Total Energy:                      -45.2477524283 H        -1231.2540 eV
Extrapolated to 0:                 -45.2477524283 H        -1231.2540 eV
Total Mermin free energy:          -45.2477524283 H        -1231.2540 eV
Force related energy:              -45.2477524283 H        -1231.2540 eV

--------------------------------------------------------------------------------

***  Geometry step: 43

 iSCC Total electronic   Diff electronic      SCC error    
    1   -0.45618094E+02    0.00000000E+00    0.34628599E-04
    2   -0.45618094E+02   -0.27036151E-10    0.25247489E-04
    3   -0.45618094E+02   -0.12583712E-10    0.41548337E-05
 
Total Energy:                      -45.2477524241 H        -1231.2540 eV
Extrapolated to 0:                 -45.2477524241 H        -1231.2540 eV
Total Mermin free energy:          -45.2477524241 H        -1231.2540 eV
Force related energy:              -45.2477524241 H        -1231.2540 eV

--------------------------------------------------------------------------------

***  Geometry step: 44

 iSCC Total electronic   Diff electronic      SCC error    
    1   -0.45618094E+02    0.00000000E+00    0.22155030E-04
    2   -0.45618094E+02   -0.16015633E-10    0.16065654E-04
    3   -0.45618094E+02   -0.69135808E-11    0.29834975E-05
 
Total Energy:                      -45.2477524264 H        -1231.2540 eV
Extrapolated to 0:                 -45.2477524264 H        -1231.2540 eV
Total Mermin free energy:          -45.2477524264 H        -1231.2540 eV
Force related energy:              -45.2477524264 H        -1231.2540 eV

--------------------------------------------------------------------------------

***  Geometry step: 45

 iSCC Total electronic   Diff electronic      SCC error    
    1   -0.45618094E+02    0.00000000E+00    0.35352166E-04
    2   -0.45618094E+02   -0.18843593E-10    0.26002584E-04
    3   -0.45618094E+02   -0.11382895E-10    0.12807388E-05
 
Total Energy:                      -45.2477524260 H        -1231.2540 eV
Extrapolated to 0:                 -45.2477524260 H        -1231.2540 eV
Total Mermin free energy:          -45.2477524260 H        -1231.2540 eV
Force related energy:              -45.2477524260 H        -1231.2540 eV

--------------------------------------------------------------------------------

***  Geometry step: 46

 iSCC Total electronic   Diff electronic      SCC error    
    1   -0.45618094E+02    0.00000000E+00    0.23311180E-04
    2   -0.45618094E+02   -0.20662583E-10    0.16928501E-04
    3   -0.45618094E+02   -0.84199314E-11    0.41814934E-05
 
Total Energy:                      -45.2477524305 H        -1231.2540 eV
Extrapolated to 0:                 -45.2477524305 H        -1231.2540 eV
Total Mermin free energy:          -45.2477524305 H        -1231.2540 eV
Force related energy:              -45.2477524305 H        -1231.2540 eV

--------------------------------------------------------------------------------

***  Geometry step: 47

 iSCC Total electronic   Diff electronic      SCC error    
    1   -0.45618095E+02    0.00000000E+00    0.39679966E-04
    2   -0.45618095E+02   -0.47961635E-10    0.23698366E-04
    3   -0.45618095E+02   -0.14331647E-10    0.48238858E-05
 
Total Energy:                      -45.2477524218 H        -1231.2540 eV
Extrapolated to 0:                 -45.2477524218 H        -1231.2540 eV
Total Mermin free energy:          -45.2477524218 H        -1231.2540 eV
Force related energy:              -45.2477524218 H        -1231.2540 eV

--------------------------------------------------------------------------------

***  Geometry step: 48

 iSCC Total electronic   Diff electronic      SCC error    
    1   -0.45618095E+02    0.00000000E+00    0.22096544E-04
    2   -0.45618095E+02   -0.29046987E-10    0.14967855E-04
    3   -0.45618095E+02   -0.14175328E-10    0.31570742E-05
 
Total Energy:                      -45.2477524307 H        -1231.2540 eV
Extrapolated to 0:                 -45.2477524307 H        -1231.2540 eV
Total Mermin free energy:          -45.2477524307 H        -1231.2540 eV
Force related energy:              -45.2477524307 H        -1231.2540 eV

--------------------------------------------------------------------------------

***  Geometry step: 49

 iSCC Total electronic   Diff electronic      SCC error    
    1   -0.45618094E+02    0.00000000E+00    0.43437426E-04
    2   -0.45618094E+02   -0.66364692E-10    0.28765909E-04
    3   -0.45618094E+02   -0.42582826E-10    0.47487483E-05
 
Total Energy:                      -45.2477524211 H        -1231.2540 eV
Extrapolated to 0:                 -45.2477524211 H        -1231.2540 eV
Total Mermin free energy:          -45.2477524211 H        -1231.2540 eV
Force related energy:              -45.2477524211 H        -1231.2540 eV

--------------------------------------------------------------------------------

***  Geometry step: 50

 iSCC Total electronic   Diff electronic      SCC error    
    1   -0.45618094E+02    0.00000000E+00    0.30932471E-04
    2   -0.45618094E+02   -0.36202152E-10    0.20322247E-04
    3   -0.45618094E+02   -0.22346569E-10    0.31672789E-05
 
Total Energy:                      -45.2477524280 H        -1231.2540 eV
Extrapolated to 0:                 -45.2477524280 H        -1231.2540 eV
Total Mermin free energy:          -45.2477524280 H        -1231.2540 eV
Force related energy:              -45.2477524280 H        -1231.2540 eV

--------------------------------------------------------------------------------

***  Geometry step: 51

 iSCC Total electronic   Diff electronic      SCC error    
    1   -0.45618094E+02    0.00000000E+00    0.38066794E-04
    2   -0.45618094E+02   -0.43478110E-10    0.24782256E-04
    3   -0.45618094E+02   -0.22062352E-10    0.31846222E-05
 
Total Energy:                      -45.2477524242 H        -1231.2540 eV
Extrapolated to 0:                 -45.2477524242 H        -1231.2540 eV
Total Mermin free energy:          -45.2477524242 H        -1231.2540 eV
Force related energy:              -45.2477524242 H        -1231.2540 eV

--------------------------------------------------------------------------------

***  Geometry step: 52

 iSCC Total electronic   Diff electronic      SCC error    
    1   -0.45618094E+02    0.00000000E+00    0.23372224E-04
    2   -0.45618094E+02   -0.23554492E-10    0.15128527E-04
    3   -0.45618094E+02   -0.97060138E-11    0.16848003E-05
 
Total Energy:                      -45.2477524260 H        -1231.2540 eV
Extrapolated to 0:                 -45.2477524260 H        -1231.2540 eV
Total Mermin free energy:          -45.2477524260 H        -1231.2540 eV
Force related energy:              -45.2477524260 H        -1231.2540 eV

--------------------------------------------------------------------------------

***  Geometry step: 53

 iSCC Total electronic   Diff electronic      SCC error    
    1   -0.45618094E+02    0.00000000E+00    0.34927475E-04
    2   -0.45618094E+02   -0.43954174E-10    0.21202326E-04
    3   -0.45618094E+02   -0.14068746E-10    0.25505760E-05
 
Total Energy:                      -45.2477524263 H        -1231.2540 eV
Extrapolated to 0:                 -45.2477524263 H        -1231.2540 eV
Total Mermin free energy:          -45.2477524263 H        -1231.2540 eV
Force related energy:              -45.2477524263 H        -1231.2540 eV

--------------------------------------------------------------------------------

***  Geometry step: 54

 iSCC Total electronic   Diff electronic      SCC error    
    1   -0.45618094E+02    0.00000000E+00    0.17801118E-04
    2   -0.45618094E+02   -0.25757174E-10    0.11742168E-04
    3   -0.45618094E+02   -0.89670493E-11    0.22079181E-05
 
Total Energy:                      -45.2477524284 H        -1231.2540 eV
Extrapolated to 0:                 -45.2477524284 H        -1231.2540 eV
Total Mermin free energy:          -45.2477524284 H        -1231.2540 eV
Force related energy:              -45.2477524284 H        -1231.2540 eV

--------------------------------------------------------------------------------

***  Geometry step: 55

 iSCC Total electronic   Diff electronic      SCC error    
    1   -0.45618094E+02    0.00000000E+00    0.32818010E-04
    2   -0.45618094E+02   -0.42035708E-10    0.21549966E-04
    3   -0.45618094E+02   -0.19255708E-10    0.25566983E-05
 
Total Energy:                      -45.2477524238 H        -1231.2540 eV
Extrapolated to 0:                 -45.2477524238 H        -1231.2540 eV
Total Mermin free energy:          -45.2477524238 H        -1231.2540 eV
Force related energy:              -45.2477524238 H        -1231.2540 eV

--------------------------------------------------------------------------------

***  Geometry step: 56

 iSCC Total electronic   Diff electronic      SCC error    
    1   -0.45618093E+02    0.00000000E+00    0.24638182E-04
    2   -0.45618093E+02   -0.29601210E-10    0.15851225E-04
    3   -0.45618093E+02   -0.16697754E-10    0.28588575E-05
 
Total Energy:                      -45.2477524274 H        -1231.2540 eV
Extrapolated to 0:                 -45.2477524274 H        -1231.2540 eV
Total Mermin free energy:          -45.2477524274 H        -1231.2540 eV
Force related energy:              -45.2477524274 H        -1231.2540 eV

--------------------------------------------------------------------------------

***  Geometry step: 57

 iSCC Total electronic   Diff electronic      SCC error    
    1   -0.45618095E+02    0.00000000E+00    0.41973310E-04
    2   -0.45618095E+02   -0.62385652E-10    0.27963974E-04
    3   -0.45618095E+02   -0.42774673E-10    0.40015472E-05
 
Total Energy:                      -45.2477524244 H        -1231.2540 eV
Extrapolated to 0:                 -45.2477524244 H        -1231.2540 eV
Total Mermin free energy:          -45.2477524244 H        -1231.2540 eV
Force related energy:              -45.2477524244 H        -1231.2540 eV

--------------------------------------------------------------------------------

***  Geometry step: 58

 iSCC Total electronic   Diff electronic      SCC error    
    1   -0.45618094E+02    0.00000000E+00    0.23433835E-04
    2   -0.45618094E+02   -0.32187586E-10    0.15620481E-04
    3   -0.45618094E+02   -0.17443824E-10    0.28926273E-05
 
Total Energy:                      -45.2477524263 H        -1231.2540 eV
Extrapolated to 0:                 -45.2477524263 H        -1231.2540 eV
Total Mermin free energy:          -45.2477524263 H        -1231.2540 eV
Force related energy:              -45.2477524263 H        -1231.2540 eV

--------------------------------------------------------------------------------

***  Geometry step: 59

 iSCC Total electronic   Diff electronic      SCC error    
    1   -0.45618095E+02    0.00000000E+00    0.40771272E-04
    2   -0.45618095E+02   -0.73590911E-10    0.26872183E-04
    3   -0.45618095E+02   -0.41609383E-10    0.36951393E-05
 
Total Energy:                      -45.2477524253 H        -1231.2540 eV
Extrapolated to 0:                 -45.2477524253 H        -1231.2540 eV
Total Mermin free energy:          -45.2477524253 H        -1231.2540 eV
Force related energy:              -45.2477524253 H        -1231.2540 eV

--------------------------------------------------------------------------------

***  Geometry step: 60

 iSCC Total electronic   Diff electronic      SCC error    
    1   -0.45618094E+02    0.00000000E+00    0.19088193E-04
    2   -0.45618094E+02   -0.34248160E-10    0.12337996E-04
    3   -0.45618094E+02   -0.18971491E-10    0.23599144E-05
 
Total Energy:                      -45.2477524289 H        -1231.2540 eV
Extrapolated to 0:                 -45.2477524289 H        -1231.2540 eV
Total Mermin free energy:          -45.2477524289 H        -1231.2540 eV
Force related energy:              -45.2477524289 H        -1231.2540 eV

--------------------------------------------------------------------------------

***  Geometry step: 61

 iSCC Total electronic   Diff electronic      SCC error    
    1   -0.45618095E+02    0.00000000E+00    0.36360594E-04
    2   -0.45618095E+02   -0.53319127E-10    0.23626845E-04
    3   -0.45618095E+02   -0.31647573E-10    0.39904180E-05
 
Total Energy:                      -45.2477524231 H        -1231.2540 eV
Extrapolated to 0:                 -45.2477524231 H        -1231.2540 eV
Total Mermin free energy:          -45.2477524231 H        -1231.2540 eV
Force related energy:              -45.2477524231 H        -1231.2540 eV

--------------------------------------------------------------------------------

***  Geometry step: 62

 iSCC Total electronic   Diff electronic      SCC error    
    1   -0.45618095E+02    0.00000000E+00    0.24621489E-04
    2   -0.45618095E+02   -0.23000268E-10    0.16060134E-04
    3   -0.45618095E+02   -0.99547037E-11    0.18512966E-05
 
Total Energy:                      -45.2477524264 H        -1231.2540 eV
Extrapolated to 0:                 -45.2477524264 H        -1231.2540 eV
Total Mermin free energy:          -45.2477524264 H        -1231.2540 eV
Force related energy:              -45.2477524264 H        -1231.2540 eV

--------------------------------------------------------------------------------

***  Geometry step: 63

 iSCC Total electronic   Diff electronic      SCC error    
    1   -0.45618094E+02    0.00000000E+00    0.36810503E-04
    2   -0.45618094E+02   -0.46796345E-10    0.22484065E-04
    3   -0.45618094E+02   -0.22588154E-10    0.34677230E-05
 
Total Energy:                      -45.2477524257 H        -1231.2540 eV
Extrapolated to 0:                 -45.2477524257 H        -1231.2540 eV
Total Mermin free energy:          -45.2477524257 H        -1231.2540 eV
Force related energy:              -45.2477524257 H        -1231.2540 eV

--------------------------------------------------------------------------------

***  Geometry step: 64

 iSCC Total electronic   Diff electronic      SCC error    
    1   -0.45618094E+02    0.00000000E+00    0.28238685E-04
    2   -0.45618094E+02   -0.35853986E-10    0.18558699E-04
    3   -0.45618094E+02   -0.22559732E-10    0.18331968E-05
 
Total Energy:                      -45.2477524263 H        -1231.2540 eV
Extrapolated to 0:                 -45.2477524263 H        -1231.2540 eV
Total Mermin free energy:          -45.2477524263 H        -1231.2540 eV
Force related energy:              -45.2477524263 H        -1231.2540 eV

--------------------------------------------------------------------------------

***  Geometry step: 65

 iSCC Total electronic   Diff electronic      SCC error    
    1   -0.45618094E+02    0.00000000E+00    0.40196913E-04
    2   -0.45618094E+02   -0.76660456E-10    0.26524086E-04
    3   -0.45618094E+02   -0.49240612E-10    0.37126328E-05
 
Total Energy:                      -45.2477524252 H        -1231.2540 eV
Extrapolated to 0:                 -45.2477524252 H        -1231.2540 eV
Total Mermin free energy:          -45.2477524252 H        -1231.2540 eV
Force related energy:              -45.2477524252 H        -1231.2540 eV

--------------------------------------------------------------------------------

***  Geometry step: 66

 iSCC Total electronic   Diff electronic      SCC error    
    1   -0.45618093E+02    0.00000000E+00    0.19488103E-04
    2   -0.45618093E+02   -0.37879033E-10    0.12604894E-04
    3   -0.45618093E+02   -0.20911273E-10    0.19660257E-05
 
Total Energy:                      -45.2477524305 H        -1231.2540 eV
Extrapolated to 0:                 -45.2477524305 H        -1231.2540 eV
Total Mermin free energy:          -45.2477524305 H        -1231.2540 eV
Force related energy:              -45.2477524305 H        -1231.2540 eV

--------------------------------------------------------------------------------

***  Geometry step: 67

 iSCC Total electronic   Diff electronic      SCC error    
    1   -0.45618095E+02    0.00000000E+00    0.34472065E-04
    2   -0.45618095E+02   -0.52473581E-10    0.21066021E-04
    3   -0.45618095E+02   -0.28030911E-10    0.32538925E-05
 
Total Energy:                      -45.2477524214 H        -1231.2540 eV
Extrapolated to 0:                 -45.2477524214 H        -1231.2540 eV
Total Mermin free energy:          -45.2477524214 H        -1231.2540 eV
Force related energy:              -45.2477524214 H        -1231.2540 eV

--------------------------------------------------------------------------------

***  Geometry step: 68

 iSCC Total electronic   Diff electronic      SCC error    
    1   -0.45618094E+02    0.00000000E+00    0.23974884E-04
    2   -0.45618094E+02   -0.29281466E-10    0.14614026E-04
    3   -0.45618094E+02   -0.14338752E-10    0.24430525E-05
 
Total Energy:                      -45.2477524232 H        -1231.2540 eV
Extrapolated to 0:                 -45.2477524232 H        -1231.2540 eV
Total Mermin free energy:          -45.2477524232 H        -1231.2540 eV
Force related energy:              -45.2477524232 H        -1231.2540 eV

--------------------------------------------------------------------------------

***  Geometry step: 69

 iSCC Total electronic   Diff electronic      SCC error    
    1   -0.45618095E+02    0.00000000E+00    0.43809152E-04
    2   -0.45618095E+02   -0.76546769E-10    0.28952079E-04
    3   -0.45618095E+02   -0.45098147E-10    0.41644060E-05
 
Total Energy:                      -45.2477524282 H        -1231.2540 eV
Extrapolated to 0:                 -45.2477524282 H        -1231.2540 eV
Total Mermin free energy:          -45.2477524282 H        -1231.2540 eV
Force related energy:              -45.2477524282 H        -1231.2540 eV

--------------------------------------------------------------------------------

***  Geometry step: 70

 iSCC Total electronic   Diff electronic      SCC error    
    1   -0.45618094E+02    0.00000000E+00    0.27893277E-04
    2   -0.45618094E+02   -0.42753356E-10    0.18274341E-04
    3   -0.45618094E+02   -0.26112446E-10    0.24052539E-05
 
Total Energy:                      -45.2477524250 H        -1231.2540 eV
Extrapolated to 0:                 -45.2477524250 H        -1231.2540 eV
Total Mermin free energy:          -45.2477524250 H        -1231.2540 eV
Force related energy:              -45.2477524250 H        -1231.2540 eV

--------------------------------------------------------------------------------

***  Geometry step: 71

 iSCC Total electronic   Diff electronic      SCC error    
    1   -0.45618094E+02    0.00000000E+00    0.44313031E-04
    2   -0.45618094E+02   -0.81257667E-10    0.29068963E-04
    3   -0.45618094E+02   -0.53447025E-10    0.28486371E-05
 
Total Energy:                      -45.2477524263 H        -1231.2540 eV
Extrapolated to 0:                 -45.2477524263 H        -1231.2540 eV
Total Mermin free energy:          -45.2477524263 H        -1231.2540 eV
Force related energy:              -45.2477524263 H        -1231.2540 eV

--------------------------------------------------------------------------------

***  Geometry step: 72

 iSCC Total electronic   Diff electronic      SCC error    
    1   -0.45618095E+02    0.00000000E+00    0.22181153E-04
    2   -0.45618095E+02   -0.32983394E-10    0.14444736E-04
    3   -0.45618095E+02   -0.20300206E-10    0.16590102E-05
 
Total Energy:                      -45.2477524178 H        -1231.2540 eV
Extrapolated to 0:                 -45.2477524178 H        -1231.2540 eV
Total Mermin free energy:          -45.2477524178 H        -1231.2540 eV
Force related energy:              -45.2477524178 H        -1231.2540 eV

--------------------------------------------------------------------------------

***  Geometry step: 73

 iSCC Total electronic   Diff electronic      SCC error    
    1   -0.45618094E+02    0.00000000E+00    0.35977155E-04
    2   -0.45618094E+02   -0.42966519E-10    0.24711438E-04
    3   -0.45618094E+02   -0.24044766E-10    0.32144323E-05
 
Total Energy:                      -45.2477524343 H        -1231.2540 eV
Extrapolated to 0:                 -45.2477524343 H        -1231.2540 eV
Total Mermin free energy:          -45.2477524343 H        -1231.2540 eV
Force related energy:              -45.2477524343 H        -1231.2540 eV

--------------------------------------------------------------------------------

***  Geometry step: 74

 iSCC Total electronic   Diff electronic      SCC error    
    1   -0.45618094E+02    0.00000000E+00    0.24339232E-04
    2   -0.45618094E+02   -0.22232882E-10    0.16651425E-04
    3   -0.45618094E+02   -0.11304735E-10    0.21156439E-05
 
Total Energy:                      -45.2477524233 H        -1231.2540 eV
Extrapolated to 0:                 -45.2477524233 H        -1231.2540 eV
Total Mermin free energy:          -45.2477524233 H        -1231.2540 eV
Force related energy:              -45.2477524233 H        -1231.2540 eV

--------------------------------------------------------------------------------

***  Geometry step: 75

 iSCC Total electronic   Diff electronic      SCC error    
    1   -0.45618094E+02    0.00000000E+00    0.37098819E-04
    2   -0.45618094E+02   -0.35626613E-10    0.24221176E-04
    3   -0.45618094E+02   -0.13109513E-10    0.31246448E-05
 
Total Energy:                      -45.2477524290 H        -1231.2540 eV
Extrapolated to 0:                 -45.2477524290 H        -1231.2540 eV
Total Mermin free energy:          -45.2477524290 H        -1231.2540 eV
Force related energy:              -45.2477524290 H        -1231.2540 eV

--------------------------------------------------------------------------------

***  Geometry step: 76

 iSCC Total electronic   Diff electronic      SCC error    
    1   -0.45618095E+02    0.00000000E+00    0.23366129E-04
    2   -0.45618095E+02   -0.30162539E-10    0.15039805E-04
    3   -0.45618095E+02   -0.14601653E-10    0.25503414E-05
 
Total Energy:                      -45.2477524240 H        -1231.2540 eV
Extrapolated to 0:                 -45.2477524240 H        -1231.2540 eV
Total Mermin free energy:          -45.2477524240 H        -1231.2540 eV
Force related energy:              -45.2477524240 H        -1231.2540 eV

--------------------------------------------------------------------------------

***  Geometry step: 77

 iSCC Total electronic   Diff electronic      SCC error    
    1   -0.45618094E+02    0.00000000E+00    0.41142203E-04
    2   -0.45618094E+02   -0.64702022E-10    0.27126366E-04
    3   -0.45618094E+02   -0.40444093E-10    0.41183517E-05
 
Total Energy:                      -45.2477524278 H        -1231.2540 eV
Extrapolated to 0:                 -45.2477524278 H        -1231.2540 eV
Total Mermin free energy:          -45.2477524278 H        -1231.2540 eV
Force related energy:              -45.2477524278 H        -1231.2540 eV

--------------------------------------------------------------------------------

***  Geometry step: 78

 iSCC Total electronic   Diff electronic      SCC error    
    1   -0.45618094E+02    0.00000000E+00    0.20035922E-04
    2   -0.45618094E+02   -0.33452352E-10    0.12851444E-04
    3   -0.45618094E+02   -0.13457679E-10    0.31975123E-05
 
Total Energy:                      -45.2477524213 H        -1231.2540 eV
Extrapolated to 0:                 -45.2477524213 H        -1231.2540 eV
Total Mermin free energy:          -45.2477524213 H        -1231.2540 eV
Force related energy:              -45.2477524213 H        -1231.2540 eV

--------------------------------------------------------------------------------

***  Geometry step: 79

 iSCC Total electronic   Diff electronic      SCC error    
    1   -0.45618094E+02    0.00000000E+00    0.39447914E-04
    2   -0.45618094E+02   -0.54612315E-10    0.23263415E-04
    3   -0.45618094E+02   -0.15084822E-10    0.35783979E-05
 
Total Energy:                      -45.2477524311 H        -1231.2540 eV
Extrapolated to 0:                 -45.2477524311 H        -1231.2540 eV
Total Mermin free energy:          -45.2477524311 H        -1231.2540 eV
Force related energy:              -45.2477524311 H        -1231.2540 eV

--------------------------------------------------------------------------------

***  Geometry step: 80

 iSCC Total electronic   Diff electronic      SCC error    
    1   -0.45618094E+02    0.00000000E+00    0.26158328E-04
    2   -0.45618094E+02   -0.31370462E-10    0.14978398E-04
    3   -0.45618094E+02   -0.81854523E-11    0.37932353E-05
 
Total Energy:                      -45.2477524239 H        -1231.2540 eV
Extrapolated to 0:                 -45.2477524239 H        -1231.2540 eV
Total Mermin free energy:          -45.2477524239 H        -1231.2540 eV
Force related energy:              -45.2477524239 H        -1231.2540 eV

--------------------------------------------------------------------------------

***  Geometry step: 81

 iSCC Total electronic   Diff electronic      SCC error    
    1   -0.45618094E+02    0.00000000E+00    0.35231048E-04
    2   -0.45618094E+02   -0.34461323E-10    0.24227164E-04
    3   -0.45618094E+02   -0.15752732E-10    0.31016481E-05
 
Total Energy:                      -45.2477524284 H        -1231.2540 eV
Extrapolated to 0:                 -45.2477524284 H        -1231.2540 eV
Total Mermin free energy:          -45.2477524284 H        -1231.2540 eV
Force related energy:              -45.2477524284 H        -1231.2540 eV

--------------------------------------------------------------------------------

***  Geometry step: 82

 iSCC Total electronic   Diff electronic      SCC error    
    1   -0.45618094E+02    0.00000000E+00    0.23096992E-04
    2   -0.45618094E+02   -0.20598634E-10    0.15950819E-04
    3   -0.45618094E+02   -0.92867936E-11    0.22635422E-05
 
Total Energy:                      -45.2477524280 H        -1231.2540 eV
Extrapolated to 0:                 -45.2477524280 H        -1231.2540 eV
Total Mermin free energy:          -45.2477524280 H        -1231.2540 eV
Force related energy:              -45.2477524280 H        -1231.2540 eV

--------------------------------------------------------------------------------

***  Geometry step: 83

 iSCC Total electronic   Diff electronic      SCC error    
    1   -0.45618094E+02    0.00000000E+00    0.38775107E-04
    2   -0.45618094E+02   -0.37857717E-10    0.25170897E-04
    3   -0.45618094E+02   -0.16044055E-10    0.31957770E-05
 
Total Energy:                      -45.2477524244 H        -1231.2540 eV
Extrapolated to 0:                 -45.2477524244 H        -1231.2540 eV
Total Mermin free energy:          -45.2477524244 H        -1231.2540 eV
Force related energy:              -45.2477524244 H        -1231.2540 eV

--------------------------------------------------------------------------------

***  Geometry step: 84

 iSCC Total electronic   Diff electronic      SCC error    
    1   -0.45618094E+02    0.00000000E+00    0.20027483E-04
    2   -0.45618094E+02   -0.36379788E-10    0.12058749E-04
    3   -0.45618094E+02   -0.14537704E-10    0.15561491E-05
 
Total Energy:                      -45.2477524237 H        -1231.2540 eV
Extrapolated to 0:                 -45.2477524237 H        -1231.2540 eV
Total Mermin free energy:          -45.2477524237 H        -1231.2540 eV
Force related energy:              -45.2477524237 H        -1231.2540 eV

--------------------------------------------------------------------------------

***  Geometry step: 85

 iSCC Total electronic   Diff electronic      SCC error    
    1   -0.45618095E+02    0.00000000E+00    0.36613393E-04
    2   -0.45618095E+02   -0.51080917E-10    0.23751275E-04
    3   -0.45618095E+02   -0.23774760E-10    0.37487185E-05
 
Total Energy:                      -45.2477524284 H        -1231.2540 eV
Extrapolated to 0:                 -45.2477524284 H        -1231.2540 eV
Total Mermin free energy:          -45.2477524284 H        -1231.2540 eV
Force related energy:              -45.2477524284 H        -1231.2540 eV

--------------------------------------------------------------------------------

***  Geometry step: 86

 iSCC Total electronic   Diff electronic      SCC error    
    1   -0.45618095E+02    0.00000000E+00    0.25102495E-04
    2   -0.45618095E+02   -0.24094504E-10    0.16155954E-04
    3   -0.45618095E+02   -0.97344355E-11    0.18006214E-05
 
Total Energy:                      -45.2477524288 H        -1231.2540 eV
Extrapolated to 0:                 -45.2477524288 H        -1231.2540 eV
Total Mermin free energy:          -45.2477524288 H        -1231.2540 eV
Force related energy:              -45.2477524288 H        -1231.2540 eV

--------------------------------------------------------------------------------

***  Geometry step: 87

 iSCC Total electronic   Diff electronic      SCC error    
    1   -0.45618094E+02    0.00000000E+00    0.37335273E-04
    2   -0.45618094E+02   -0.49894311E-10    0.24184579E-04
    3   -0.45618094E+02   -0.27540636E-10    0.35123077E-05
 
Total Energy:                      -45.2477524232 H        -1231.2540 eV
Extrapolated to 0:                 -45.2477524232 H        -1231.2540 eV
Total Mermin free energy:          -45.2477524232 H        -1231.2540 eV
Force related energy:              -45.2477524232 H        -1231.2540 eV

--------------------------------------------------------------------------------

***  Geometry step: 88

 iSCC Total electronic   Diff electronic      SCC error    
    1   -0.45618095E+02    0.00000000E+00    0.28531161E-04
    2   -0.45618095E+02   -0.35754510E-10    0.18774688E-04
    3   -0.45618095E+02   -0.20627056E-10    0.30299382E-05
 
Total Energy:                      -45.2477524298 H        -1231.2540 eV
Extrapolated to 0:                 -45.2477524298 H        -1231.2540 eV
Total Mermin free energy:          -45.2477524298 H        -1231.2540 eV
Force related energy:              -45.2477524298 H        -1231.2540 eV

--------------------------------------------------------------------------------

***  Geometry step: 89

 iSCC Total electronic   Diff electronic      SCC error    
    1   -0.45618094E+02    0.00000000E+00    0.37438012E-04
    2   -0.45618094E+02   -0.55834448E-10    0.22777253E-04
    3   -0.45618094E+02   -0.26986413E-10    0.37686852E-05
 
Total Energy:                      -45.2477524223 H        -1231.2540 eV
Extrapolated to 0:                 -45.2477524223 H        -1231.2540 eV
Total Mermin free energy:          -45.2477524223 H        -1231.2540 eV
Force related energy:              -45.2477524223 H        -1231.2540 eV

--------------------------------------------------------------------------------

***  Geometry step: 90

 iSCC Total electronic   Diff electronic      SCC error    
    1   -0.45618095E+02    0.00000000E+00    0.23241338E-04
    2   -0.45618095E+02   -0.32940761E-10    0.15158940E-04
    3   -0.45618095E+02   -0.17990942E-10    0.25963135E-05
 
Total Energy:                      -45.2477524242 H        -1231.2540 eV
Extrapolated to 0:                 -45.2477524242 H        -1231.2540 eV
Total Mermin free energy:          -45.2477524242 H        -1231.2540 eV
Force related energy:              -45.2477524242 H        -1231.2540 eV

--------------------------------------------------------------------------------

***  Geometry step: 91

 iSCC Total electronic   Diff electronic      SCC error    
    1   -0.45618094E+02    0.00000000E+00    0.44353655E-04
    2   -0.45618094E+02   -0.67018391E-10    0.29293961E-04
    3   -0.45618094E+02   -0.45510262E-10    0.29518940E-05
 
Total Energy:                      -45.2477524274 H        -1231.2540 eV
Extrapolated to 0:                 -45.2477524274 H        -1231.2540 eV
Total Mermin free energy:          -45.2477524274 H        -1231.2540 eV
Force related energy:              -45.2477524274 H        -1231.2540 eV

--------------------------------------------------------------------------------

***  Geometry step: 92

 iSCC Total electronic   Diff electronic      SCC error    
    1   -0.45618095E+02    0.00000000E+00    0.30806181E-04
    2   -0.45618095E+02   -0.32990499E-10    0.20324879E-04
    3   -0.45618095E+02   -0.22026825E-10    0.19448406E-05
 
Total Energy:                      -45.2477524269 H        -1231.2540 eV
Extrapolated to 0:                 -45.2477524269 H        -1231.2540 eV
Total Mermin free energy:          -45.2477524269 H        -1231.2540 eV
Force related energy:              -45.2477524269 H        -1231.2540 eV

--------------------------------------------------------------------------------

***  Geometry step: 93

 iSCC Total electronic   Diff electronic      SCC error    
    1   -0.45618094E+02    0.00000000E+00    0.36655536E-04
    2   -0.45618094E+02   -0.38852477E-10    0.22504137E-04
    3   -0.45618094E+02   -0.16292745E-10    0.31084979E-05
 
Total Energy:                      -45.2477524254 H        -1231.2540 eV
Extrapolated to 0:                 -45.2477524254 H        -1231.2540 eV
Total Mermin free energy:          -45.2477524254 H        -1231.2540 eV
Force related energy:              -45.2477524254 H        -1231.2540 eV

--------------------------------------------------------------------------------

***  Geometry step: 94

 iSCC Total electronic   Diff electronic      SCC error    
    1   -0.45618094E+02    0.00000000E+00    0.21781129E-04
    2   -0.45618094E+02   -0.28173019E-10    0.14612007E-04
    3   -0.45618094E+02   -0.13663737E-10    0.20289342E-05
 
Total Energy:                      -45.2477524279 H        -1231.2540 eV
Extrapolated to 0:                 -45.2477524279 H        -1231.2540 eV
Total Mermin free energy:          -45.2477524279 H        -1231.2540 eV
Force related energy:              -45.2477524279 H        -1231.2540 eV

--------------------------------------------------------------------------------

***  Geometry step: 95

 iSCC Total electronic   Diff electronic      SCC error    
    1   -0.45618095E+02    0.00000000E+00    0.42692701E-04
    2   -0.45618095E+02   -0.68723693E-10    0.28408378E-04
    3   -0.45618095E+02   -0.40287773E-10    0.41375449E-05
 
Total Energy:                      -45.2477524237 H        -1231.2540 eV
Extrapolated to 0:                 -45.2477524237 H        -1231.2540 eV
Total Mermin free energy:          -45.2477524237 H        -1231.2540 eV
Force related energy:              -45.2477524237 H        -1231.2540 eV

--------------------------------------------------------------------------------

***  Geometry step: 96

 iSCC Total electronic   Diff electronic      SCC error    
    1   -0.45618094E+02    0.00000000E+00    0.20503362E-04
    2   -0.45618094E+02   -0.33907099E-10    0.13294447E-04
    3   -0.45618094E+02   -0.17230661E-10    0.18385481E-05
 
Total Energy:                      -45.2477524253 H        -1231.2540 eV
Extrapolated to 0:                 -45.2477524253 H        -1231.2540 eV
Total Mermin free energy:          -45.2477524253 H        -1231.2540 eV
Force related energy:              -45.2477524253 H        -1231.2540 eV

--------------------------------------------------------------------------------

***  Geometry step: 97

 iSCC Total electronic   Diff electronic      SCC error    
    1   -0.45618095E+02    0.00000000E+00    0.33418000E-04
    2   -0.45618095E+02   -0.46540549E-10    0.20341354E-04
    3   -0.45618095E+02   -0.19653612E-10    0.26794769E-05
 
Total Energy:                      -45.2477524268 H        -1231.2540 eV
Extrapolated to 0:                 -45.2477524268 H        -1231.2540 eV
Total Mermin free energy:          -45.2477524268 H        -1231.2540 eV
Force related energy:              -45.2477524268 H        -1231.2540 eV

--------------------------------------------------------------------------------

***  Geometry step: 98

 iSCC Total electronic   Diff electronic      SCC error    
    1   -0.45618093E+02    0.00000000E+00    0.24590420E-04
    2   -0.45618093E+02   -0.30759395E-10    0.14811778E-04
    3   -0.45618093E+02   -0.15319301E-10    0.29224973E-05
 
Total Energy:                      -45.2477524280 H        -1231.2540 eV
Extrapolated to 0:                 -45.2477524280 H        -1231.2540 eV
Total Mermin free energy:          -45.2477524280 H        -1231.2540 eV
Force related energy:              -45.2477524280 H        -1231.2540 eV

--------------------------------------------------------------------------------

***  Geometry step: 99

 iSCC Total electronic   Diff electronic      SCC error    
    1   -0.45618095E+02    0.00000000E+00    0.41170318E-04
    2   -0.45618095E+02   -0.60232708E-10    0.27404036E-04
    3   -0.45618095E+02   -0.40834891E-10    0.37953107E-05
 
Total Energy:                      -45.2477524238 H        -1231.2540 eV
Extrapolated to 0:                 -45.2477524238 H        -1231.2540 eV
Total Mermin free energy:          -45.2477524238 H        -1231.2540 eV
Force related energy:              -45.2477524238 H        -1231.2540 eV

--------------------------------------------------------------------------------

***  Geometry step: 100

 iSCC Total electronic   Diff electronic      SCC error    
    1   -0.45618094E+02    0.00000000E+00    0.24270263E-04
    2   -0.45618094E+02   -0.31228353E-10    0.15705718E-04
    3   -0.45618094E+02   -0.18161472E-10    0.27996421E-05
 
Total Energy:                      -45.2477524275 H        -1231.2540 eV
Extrapolated to 0:                 -45.2477524275 H        -1231.2540 eV
Total Mermin free energy:          -45.2477524275 H        -1231.2540 eV
Force related energy:              -45.2477524275 H        -1231.2540 eV

--------------------------------------------------------------------------------

***  Geometry step: 101

 iSCC Total electronic   Diff electronic      SCC error    
    1   -0.45618094E+02    0.00000000E+00    0.40687327E-04
    2   -0.45618094E+02   -0.71935347E-10    0.26849323E-04
    3   -0.45618094E+02   -0.43122839E-10    0.36958835E-05
 
Total Energy:                      -45.2477524242 H        -1231.2540 eV
Extrapolated to 0:                 -45.2477524242 H        -1231.2540 eV
Total Mermin free energy:          -45.2477524242 H        -1231.2540 eV
Force related energy:              -45.2477524242 H        -1231.2540 eV

--------------------------------------------------------------------------------

***  Geometry step: 102

 iSCC Total electronic   Diff electronic      SCC error    
    1   -0.45618094E+02    0.00000000E+00    0.22869321E-04
    2   -0.45618094E+02   -0.41204373E-10    0.15097973E-04
    3   -0.45618094E+02   -0.23383961E-10    0.22957421E-05
 
Total Energy:                      -45.2477524229 H        -1231.2540 eV
Extrapolated to 0:                 -45.2477524229 H        -1231.2540 eV
Total Mermin free energy:          -45.2477524229 H        -1231.2540 eV
Force related energy:              -45.2477524229 H        -1231.2540 eV

--------------------------------------------------------------------------------

***  Geometry step: 103

 iSCC Total electronic   Diff electronic      SCC error    
    1   -0.45618094E+02    0.00000000E+00    0.43808894E-04
    2   -0.45618094E+02   -0.79275253E-10    0.29048035E-04
    3   -0.45618094E+02   -0.46249227E-10    0.42985374E-05
 
Total Energy:                      -45.2477524286 H        -1231.2540 eV
Extrapolated to 0:                 -45.2477524286 H        -1231.2540 eV
Total Mermin free energy:          -45.2477524286 H        -1231.2540 eV
Force related energy:              -45.2477524286 H        -1231.2540 eV

--------------------------------------------------------------------------------

***  Geometry step: 104

 iSCC Total electronic   Diff electronic      SCC error    
    1   -0.45618094E+02    0.00000000E+00    0.29165111E-04
    2   -0.45618094E+02   -0.44096282E-10    0.18897249E-04
    3   -0.45618094E+02   -0.26112446E-10    0.24751612E-05
 
Total Energy:                      -45.2477524276 H        -1231.2540 eV
Extrapolated to 0:                 -45.2477524276 H        -1231.2540 eV
Total Mermin free energy:          -45.2477524276 H        -1231.2540 eV
Force related energy:              -45.2477524276 H        -1231.2540 eV

--------------------------------------------------------------------------------

***  Geometry step: 105

 iSCC Total electronic   Diff electronic      SCC error    
    1   -0.45618095E+02    0.00000000E+00    0.45468041E-04
    2   -0.45618095E+02   -0.73590911E-10    0.30201395E-04
    3   -0.45618095E+02   -0.42618353E-10    0.44406193E-05
 
Total Energy:                      -45.2477524239 H        -1231.2540 eV
Extrapolated to 0:                 -45.2477524239 H        -1231.2540 eV
Total Mermin free energy:          -45.2477524239 H        -1231.2540 eV
Force related energy:              -45.2477524239 H        -1231.2540 eV

--------------------------------------------------------------------------------

***  Geometry step: 106

 iSCC Total electronic   Diff electronic      SCC error    
    1   -0.45618094E+02    0.00000000E+00    0.24359643E-04
    2   -0.45618094E+02   -0.30354386E-10    0.14849975E-04
    3   -0.45618094E+02   -0.16662227E-10    0.24145937E-05
 
Total Energy:                      -45.2477524274 H        -1231.2540 eV
Extrapolated to 0:                 -45.2477524274 H        -1231.2540 eV
Total Mermin free energy:          -45.2477524274 H        -1231.2540 eV
Force related energy:              -45.2477524274 H        -1231.2540 eV

--------------------------------------------------------------------------------

***  Geometry step: 107

 iSCC Total electronic   Diff electronic      SCC error    
    1   -0.45618095E+02    0.00000000E+00    0.38594853E-04
    2   -0.45618095E+02   -0.57873706E-10    0.25692094E-04
    3   -0.45618095E+02   -0.38490100E-10    0.30507611E-05
 
Total Energy:                      -45.2477524243 H        -1231.2540 eV
Extrapolated to 0:                 -45.2477524243 H        -1231.2540 eV
Total Mermin free energy:          -45.2477524243 H        -1231.2540 eV
Force related energy:              -45.2477524243 H        -1231.2540 eV

--------------------------------------------------------------------------------

***  Geometry step: 108

 iSCC Total electronic   Diff electronic      SCC error    
    1   -0.45618094E+02    0.00000000E+00    0.18506327E-04
    2   -0.45618094E+02   -0.22133406E-10    0.12278870E-04
    3   -0.45618094E+02   -0.13649526E-10    0.13288462E-05
 
Total Energy:                      -45.2477524268 H        -1231.2540 eV
Extrapolated to 0:                 -45.2477524268 H        -1231.2540 eV
Total Mermin free energy:          -45.2477524268 H        -1231.2540 eV
Force related energy:              -45.2477524268 H        -1231.2540 eV

--------------------------------------------------------------------------------

***  Geometry step: 109

 iSCC Total electronic   Diff electronic      SCC error    
    1   -0.45618094E+02    0.00000000E+00    0.36255441E-04
    2   -0.45618094E+02   -0.38809844E-10    0.23683509E-04
    3   -0.45618094E+02   -0.16974866E-10    0.25900192E-05
 
Total Energy:                      -45.2477524255 H        -1231.2540 eV
Extrapolated to 0:                 -45.2477524255 H        -1231.2540 eV
Total Mermin free energy:          -45.2477524255 H        -1231.2540 eV
Force related energy:              -45.2477524255 H        -1231.2540 eV

--------------------------------------------------------------------------------

***  Geometry step: 110

 iSCC Total electronic   Diff electronic      SCC error    
    1   -0.45618094E+02    0.00000000E+00    0.24494078E-04
    2   -0.45618094E+02   -0.30702552E-10    0.15590729E-04
    3   -0.45618094E+02   -0.15212720E-10    0.26167375E-05
 
Total Energy:                      -45.2477524213 H        -1231.2540 eV
Extrapolated to 0:                 -45.2477524213 H        -1231.2540 eV
Total Mermin free energy:          -45.2477524213 H        -1231.2540 eV
Force related energy:              -45.2477524213 H        -1231.2540 eV

--------------------------------------------------------------------------------

***  Geometry step: 111

 iSCC Total electronic   Diff electronic      SCC error    
    1   -0.45618095E+02    0.00000000E+00    0.45862166E-04
    2   -0.45618095E+02   -0.70862427E-10    0.30345596E-04
    3   -0.45618095E+02   -0.44195758E-10    0.48346262E-05
 
Total Energy:                      -45.2477524304 H        -1231.2540 eV
Extrapolated to 0:                 -45.2477524304 H        -1231.2540 eV
Total Mermin free energy:          -45.2477524304 H        -1231.2540 eV
Force related energy:              -45.2477524304 H        -1231.2540 eV

--------------------------------------------------------------------------------

***  Geometry step: 112

 iSCC Total electronic   Diff electronic      SCC error    
    1   -0.45618094E+02    0.00000000E+00    0.24236757E-04
    2   -0.45618094E+02   -0.27810643E-10    0.15777625E-04
    3   -0.45618094E+02   -0.11205259E-10    0.19620106E-05
 
Total Energy:                      -45.2477524284 H        -1231.2540 eV
Extrapolated to 0:                 -45.2477524284 H        -1231.2540 eV
Total Mermin free energy:          -45.2477524284 H        -1231.2540 eV
Force related energy:              -45.2477524284 H        -1231.2540 eV

--------------------------------------------------------------------------------

***  Geometry step: 113

 iSCC Total electronic   Diff electronic      SCC error    
    1   -0.45618094E+02    0.00000000E+00    0.36374120E-04
    2   -0.45618094E+02   -0.49780624E-10    0.21904320E-04
    3   -0.45618094E+02   -0.19241497E-10    0.34300023E-05
 
Total Energy:                      -45.2477524239 H        -1231.2540 eV
Extrapolated to 0:                 -45.2477524239 H        -1231.2540 eV
Total Mermin free energy:          -45.2477524239 H        -1231.2540 eV
Force related energy:              -45.2477524239 H        -1231.2540 eV

--------------------------------------------------------------------------------

***  Geometry step: 114

 iSCC Total electronic   Diff electronic      SCC error    
    1   -0.45618095E+02    0.00000000E+00    0.23010905E-04
    2   -0.45618095E+02   -0.32578384E-10    0.15001349E-04
    3   -0.45618095E+02   -0.15496937E-10    0.31885113E-05
 
Total Energy:                      -45.2477524258 H        -1231.2540 eV
Extrapolated to 0:                 -45.2477524258 H        -1231.2540 eV
Total Mermin free energy:          -45.2477524258 H        -1231.2540 eV
Force related energy:              -45.2477524258 H        -1231.2540 eV

--------------------------------------------------------------------------------

***  Geometry step: 115

 iSCC Total electronic   Diff electronic      SCC error    
    1   -0.45618094E+02    0.00000000E+00    0.43303584E-04
    2   -0.45618094E+02   -0.65497829E-10    0.28593588E-04
    3   -0.45618094E+02   -0.43343107E-10    0.28158143E-05
 
Total Energy:                      -45.2477524259 H        -1231.2540 eV
Extrapolated to 0:                 -45.2477524259 H        -1231.2540 eV
Total Mermin free energy:          -45.2477524259 H        -1231.2540 eV
Force related energy:              -45.2477524259 H        -1231.2540 eV

--------------------------------------------------------------------------------

***  Geometry step: 116

 iSCC Total electronic   Diff electronic      SCC error    
    1   -0.45618095E+02    0.00000000E+00    0.30285074E-04
    2   -0.45618095E+02   -0.31860736E-10    0.19977160E-04
    3   -0.45618095E+02   -0.21458391E-10    0.21861286E-05
 
Total Energy:                      -45.2477524239 H        -1231.2540 eV
Extrapolated to 0:                 -45.2477524239 H        -1231.2540 eV
Total Mermin free energy:          -45.2477524239 H        -1231.2540 eV
Force related energy:              -45.2477524239 H        -1231.2540 eV

--------------------------------------------------------------------------------

***  Geometry step: 117

 iSCC Total electronic   Diff electronic      SCC error    
    1   -0.45618094E+02    0.00000000E+00    0.36429693E-04
    2   -0.45618094E+02   -0.39356962E-10    0.23919152E-04
    3   -0.45618094E+02   -0.18367530E-10    0.25398630E-05
 
Total Energy:                      -45.2477524283 H        -1231.2540 eV
Extrapolated to 0:                 -45.2477524283 H        -1231.2540 eV
Total Mermin free energy:          -45.2477524283 H        -1231.2540 eV
Force related energy:              -45.2477524283 H        -1231.2540 eV

--------------------------------------------------------------------------------

***  Geometry step: 118

 iSCC Total electronic   Diff electronic      SCC error    
    1   -0.45618094E+02    0.00000000E+00    0.22588435E-04
    2   -0.45618094E+02   -0.31228353E-10    0.15030510E-04
    3   -0.45618094E+02   -0.14104273E-10    0.23795761E-05
 
Total Energy:                      -45.2477524277 H        -1231.2540 eV
Extrapolated to 0:                 -45.2477524277 H        -1231.2540 eV
Total Mermin free energy:          -45.2477524277 H        -1231.2540 eV
Force related energy:              -45.2477524277 H        -1231.2540 eV

--------------------------------------------------------------------------------

***  Geometry step: 119

 iSCC Total electronic   Diff electronic      SCC error    
    1   -0.45618095E+02    0.00000000E+00    0.42517470E-04
    2   -0.45618095E+02   -0.70052408E-10    0.28228094E-04
    3   -0.45618095E+02   -0.39086956E-10    0.42034827E-05
 
Total Energy:                      -45.2477524240 H        -1231.2540 eV
Extrapolated to 0:                 -45.2477524240 H        -1231.2540 eV
Total Mermin free energy:          -45.2477524240 H        -1231.2540 eV
Force related energy:              -45.2477524240 H        -1231.2540 eV

--------------------------------------------------------------------------------

***  Geometry step: 120

[...]

 iSCC Total electronic   Diff electronic      SCC error    
    1   -0.45618095E+02    0.00000000E+00    0.57910651E-05
 
Total Energy:                      -45.2477524286 H        -1231.2540 eV
Extrapolated to 0:                 -45.2477524286 H        -1231.2540 eV
Total Mermin free energy:          -45.2477524286 H        -1231.2540 eV
Force related energy:              -45.2477524286 H        -1231.2540 eV

--------------------------------------------------------------------------------

***  Geometry step: 337

 iSCC Total electronic   Diff electronic      SCC error    
    1   -0.45618094E+02    0.00000000E+00    0.56504694E-05
 
Total Energy:                      -45.2477524248 H        -1231.2540 eV
Extrapolated to 0:                 -45.2477524248 H        -1231.2540 eV
Total Mermin free energy:          -45.2477524248 H        -1231.2540 eV
Force related energy:              -45.2477524248 H        -1231.2540 eV

--------------------------------------------------------------------------------

***  Geometry step: 338

 iSCC Total electronic   Diff electronic      SCC error    
    1   -0.45618093E+02    0.00000000E+00    0.69916427E-05
 
Total Energy:                      -45.2477524296 H        -1231.2540 eV
Extrapolated to 0:                 -45.2477524296 H        -1231.2540 eV
Total Mermin free energy:          -45.2477524296 H        -1231.2540 eV
Force related energy:              -45.2477524296 H        -1231.2540 eV

--------------------------------------------------------------------------------

***  Geometry step: 339

 iSCC Total electronic   Diff electronic      SCC error    
    1   -0.45618095E+02    0.00000000E+00    0.71322163E-05
 
Total Energy:                      -45.2477524237 H        -1231.2540 eV
Extrapolated to 0:                 -45.2477524237 H        -1231.2540 eV
Total Mermin free energy:          -45.2477524237 H        -1231.2540 eV
Force related energy:              -45.2477524237 H        -1231.2540 eV

--------------------------------------------------------------------------------

***  Geometry step: 340

 iSCC Total electronic   Diff electronic      SCC error    
    1   -0.45618093E+02    0.00000000E+00    0.91621487E-05
 
Total Energy:                      -45.2477524274 H        -1231.2540 eV
Extrapolated to 0:                 -45.2477524274 H        -1231.2540 eV
Total Mermin free energy:          -45.2477524274 H        -1231.2540 eV
Force related energy:              -45.2477524274 H        -1231.2540 eV

--------------------------------------------------------------------------------

***  Geometry step: 341

 iSCC Total electronic   Diff electronic      SCC error    
    1   -0.45618095E+02    0.00000000E+00    0.93026977E-05
 
Total Energy:                      -45.2477524256 H        -1231.2540 eV
Extrapolated to 0:                 -45.2477524256 H        -1231.2540 eV
Total Mermin free energy:          -45.2477524256 H        -1231.2540 eV
Force related energy:              -45.2477524256 H        -1231.2540 eV

--------------------------------------------------------------------------------

***  Geometry step: 342

 iSCC Total electronic   Diff electronic      SCC error    
    1   -0.45618095E+02    0.00000000E+00    0.63413454E-05
 
Total Energy:                      -45.2477524267 H        -1231.2540 eV
Extrapolated to 0:                 -45.2477524267 H        -1231.2540 eV
Total Mermin free energy:          -45.2477524267 H        -1231.2540 eV
Force related energy:              -45.2477524267 H        -1231.2540 eV

--------------------------------------------------------------------------------

***  Geometry step: 343

 iSCC Total electronic   Diff electronic      SCC error    
    1   -0.45618093E+02    0.00000000E+00    0.63140679E-05
 
Total Energy:                      -45.2477524265 H        -1231.2540 eV
Extrapolated to 0:                 -45.2477524265 H        -1231.2540 eV
Total Mermin free energy:          -45.2477524265 H        -1231.2540 eV
Force related energy:              -45.2477524265 H        -1231.2540 eV

--------------------------------------------------------------------------------

***  Geometry step: 344

 iSCC Total electronic   Diff electronic      SCC error    
    1   -0.45618093E+02    0.00000000E+00    0.67825989E-05
 
Total Energy:                      -45.2477524282 H        -1231.2540 eV
Extrapolated to 0:                 -45.2477524282 H        -1231.2540 eV
Total Mermin free energy:          -45.2477524282 H        -1231.2540 eV
Force related energy:              -45.2477524282 H        -1231.2540 eV

--------------------------------------------------------------------------------

***  Geometry step: 345

 iSCC Total electronic   Diff electronic      SCC error    
    1   -0.45618095E+02    0.00000000E+00    0.68098954E-05
 
Total Energy:                      -45.2477524250 H        -1231.2540 eV
Extrapolated to 0:                 -45.2477524250 H        -1231.2540 eV
Total Mermin free energy:          -45.2477524250 H        -1231.2540 eV
Force related energy:              -45.2477524250 H        -1231.2540 eV

--------------------------------------------------------------------------------

***  Geometry step: 346

 iSCC Total electronic   Diff electronic      SCC error    
    1   -0.45618093E+02    0.00000000E+00    0.60862443E-05
 
Total Energy:                      -45.2477524270 H        -1231.2540 eV
Extrapolated to 0:                 -45.2477524270 H        -1231.2540 eV
Total Mermin free energy:          -45.2477524270 H        -1231.2540 eV
Force related energy:              -45.2477524270 H        -1231.2540 eV

--------------------------------------------------------------------------------

***  Geometry step: 347

 iSCC Total electronic   Diff electronic      SCC error    
    1   -0.45618095E+02    0.00000000E+00    0.61138497E-05
 
Total Energy:                      -45.2477524262 H        -1231.2540 eV
Extrapolated to 0:                 -45.2477524262 H        -1231.2540 eV
Total Mermin free energy:          -45.2477524262 H        -1231.2540 eV
Force related energy:              -45.2477524262 H        -1231.2540 eV

--------------------------------------------------------------------------------

***  Geometry step: 348

 iSCC Total electronic   Diff electronic      SCC error    
    1   -0.45618093E+02    0.00000000E+00    0.96502120E-05
 
Total Energy:                      -45.2477524229 H        -1231.2540 eV
Extrapolated to 0:                 -45.2477524229 H        -1231.2540 eV
Total Mermin free energy:          -45.2477524229 H        -1231.2540 eV
Force related energy:              -45.2477524229 H        -1231.2540 eV

--------------------------------------------------------------------------------

***  Geometry step: 349

 iSCC Total electronic   Diff electronic      SCC error    
    1   -0.45618096E+02    0.00000000E+00    0.97777859E-05
 
Total Energy:                      -45.2477524295 H        -1231.2540 eV
Extrapolated to 0:                 -45.2477524295 H        -1231.2540 eV
Total Mermin free energy:          -45.2477524295 H        -1231.2540 eV
Force related energy:              -45.2477524295 H        -1231.2540 eV

--------------------------------------------------------------------------------

***  Geometry step: 350

 iSCC Total electronic   Diff electronic      SCC error    
    1   -0.45618094E+02    0.00000000E+00    0.47373085E-05
 
Total Energy:                      -45.2477524264 H        -1231.2540 eV
Extrapolated to 0:                 -45.2477524264 H        -1231.2540 eV
Total Mermin free energy:          -45.2477524264 H        -1231.2540 eV
Force related energy:              -45.2477524264 H        -1231.2540 eV

--------------------------------------------------------------------------------

***  Geometry step: 351

 iSCC Total electronic   Diff electronic      SCC error    
    1   -0.45618095E+02    0.00000000E+00    0.48646473E-05
 
Total Energy:                      -45.2477524270 H        -1231.2540 eV
Extrapolated to 0:                 -45.2477524270 H        -1231.2540 eV
Total Mermin free energy:          -45.2477524270 H        -1231.2540 eV
Force related energy:              -45.2477524270 H        -1231.2540 eV

--------------------------------------------------------------------------------

***  Geometry step: 352

 iSCC Total electronic   Diff electronic      SCC error    
    1   -0.45618095E+02    0.00000000E+00    0.38707345E-05
 
Total Energy:                      -45.2477524278 H        -1231.2540 eV
Extrapolated to 0:                 -45.2477524278 H        -1231.2540 eV
Total Mermin free energy:          -45.2477524278 H        -1231.2540 eV
Force related energy:              -45.2477524278 H        -1231.2540 eV

--------------------------------------------------------------------------------

***  Geometry step: 353

 iSCC Total electronic   Diff electronic      SCC error    
    1   -0.45618094E+02    0.00000000E+00    0.39279522E-05
 
Total Energy:                      -45.2477524259 H        -1231.2540 eV
Extrapolated to 0:                 -45.2477524259 H        -1231.2540 eV
Total Mermin free energy:          -45.2477524259 H        -1231.2540 eV
Force related energy:              -45.2477524259 H        -1231.2540 eV

--------------------------------------------------------------------------------

***  Geometry step: 354

 iSCC Total electronic   Diff electronic      SCC error    
    1   -0.45618095E+02    0.00000000E+00    0.59978302E-05
 
Total Energy:                      -45.2477524278 H        -1231.2540 eV
Extrapolated to 0:                 -45.2477524278 H        -1231.2540 eV
Total Mermin free energy:          -45.2477524278 H        -1231.2540 eV
Force related energy:              -45.2477524278 H        -1231.2540 eV

--------------------------------------------------------------------------------

***  Geometry step: 355

 iSCC Total electronic   Diff electronic      SCC error    
    1   -0.45618093E+02    0.00000000E+00    0.59024596E-05
 
Total Energy:                      -45.2477524256 H        -1231.2540 eV
Extrapolated to 0:                 -45.2477524256 H        -1231.2540 eV
Total Mermin free energy:          -45.2477524256 H        -1231.2540 eV
Force related energy:              -45.2477524256 H        -1231.2540 eV

--------------------------------------------------------------------------------

***  Geometry step: 356

 iSCC Total electronic   Diff electronic      SCC error    
    1   -0.45618094E+02    0.00000000E+00    0.39257432E-05
 
Total Energy:                      -45.2477524264 H        -1231.2540 eV
Extrapolated to 0:                 -45.2477524264 H        -1231.2540 eV
Total Mermin free energy:          -45.2477524264 H        -1231.2540 eV
Force related energy:              -45.2477524264 H        -1231.2540 eV

--------------------------------------------------------------------------------

***  Geometry step: 357

 iSCC Total electronic   Diff electronic      SCC error    
    1   -0.45618094E+02    0.00000000E+00    0.38583352E-05
 
Total Energy:                      -45.2477524273 H        -1231.2540 eV
Extrapolated to 0:                 -45.2477524273 H        -1231.2540 eV
Total Mermin free energy:          -45.2477524273 H        -1231.2540 eV
Force related energy:              -45.2477524273 H        -1231.2540 eV

--------------------------------------------------------------------------------

***  Geometry step: 358

 iSCC Total electronic   Diff electronic      SCC error    
    1   -0.45618096E+02    0.00000000E+00    0.10887469E-04
    2   -0.45618096E+02   -0.58193450E-11    0.72458054E-05
 
Total Energy:                      -45.2477524287 H        -1231.2540 eV
Extrapolated to 0:                 -45.2477524287 H        -1231.2540 eV
Total Mermin free energy:          -45.2477524287 H        -1231.2540 eV
Force related energy:              -45.2477524287 H        -1231.2540 eV

--------------------------------------------------------------------------------

***  Geometry step: 359

 iSCC Total electronic   Diff electronic      SCC error    
    1   -0.45618093E+02    0.00000000E+00    0.14434082E-04
    2   -0.45618093E+02   -0.73754336E-11    0.95467473E-05
 
Total Energy:                      -45.2477524238 H        -1231.2540 eV
Extrapolated to 0:                 -45.2477524238 H        -1231.2540 eV
Total Mermin free energy:          -45.2477524238 H        -1231.2540 eV
Force related energy:              -45.2477524238 H        -1231.2540 eV

--------------------------------------------------------------------------------

***  Geometry step: 360

 iSCC Total electronic   Diff electronic      SCC error    
    1   -0.45618094E+02    0.00000000E+00    0.60882234E-05
 
Total Energy:                      -45.2477524303 H        -1231.2540 eV
Extrapolated to 0:                 -45.2477524303 H        -1231.2540 eV
Total Mermin free energy:          -45.2477524303 H        -1231.2540 eV
Force related energy:              -45.2477524303 H        -1231.2540 eV

--------------------------------------------------------------------------------

***  Geometry step: 361

 iSCC Total electronic   Diff electronic      SCC error    
    1   -0.45618095E+02    0.00000000E+00    0.60746737E-05
 
Total Energy:                      -45.2477524231 H        -1231.2540 eV
Extrapolated to 0:                 -45.2477524231 H        -1231.2540 eV
Total Mermin free energy:          -45.2477524231 H        -1231.2540 eV
Force related energy:              -45.2477524231 H        -1231.2540 eV

--------------------------------------------------------------------------------

***  Geometry step: 362

 iSCC Total electronic   Diff electronic      SCC error    
    1   -0.45618094E+02    0.00000000E+00    0.39497569E-05
 
Total Energy:                      -45.2477524244 H        -1231.2540 eV
Extrapolated to 0:                 -45.2477524244 H        -1231.2540 eV
Total Mermin free energy:          -45.2477524244 H        -1231.2540 eV
Force related energy:              -45.2477524244 H        -1231.2540 eV

--------------------------------------------------------------------------------

***  Geometry step: 363

 iSCC Total electronic   Diff electronic      SCC error    
    1   -0.45618094E+02    0.00000000E+00    0.36421005E-05
 
Total Energy:                      -45.2477524293 H        -1231.2540 eV
Extrapolated to 0:                 -45.2477524293 H        -1231.2540 eV
Total Mermin free energy:          -45.2477524293 H        -1231.2540 eV
Force related energy:              -45.2477524293 H        -1231.2540 eV

--------------------------------------------------------------------------------

***  Geometry step: 364

 iSCC Total electronic   Diff electronic      SCC error    
    1   -0.45618093E+02    0.00000000E+00    0.12289984E-04
    2   -0.45618093E+02   -0.63522521E-11    0.80363566E-05
 
Total Energy:                      -45.2477524260 H        -1231.2540 eV
Extrapolated to 0:                 -45.2477524260 H        -1231.2540 eV
Total Mermin free energy:          -45.2477524260 H        -1231.2540 eV
Force related energy:              -45.2477524260 H        -1231.2540 eV

--------------------------------------------------------------------------------

***  Geometry step: 365

 iSCC Total electronic   Diff electronic      SCC error    
    1   -0.45618096E+02    0.00000000E+00    0.16529530E-04
    2   -0.45618096E+02   -0.13230306E-10    0.10710372E-04
    3   -0.45618096E+02   -0.64090955E-11    0.23423691E-05
 
Total Energy:                      -45.2477524266 H        -1231.2540 eV
Extrapolated to 0:                 -45.2477524266 H        -1231.2540 eV
Total Mermin free energy:          -45.2477524266 H        -1231.2540 eV
Force related energy:              -45.2477524266 H        -1231.2540 eV

--------------------------------------------------------------------------------

***  Geometry step: 366

 iSCC Total electronic   Diff electronic      SCC error    
    1   -0.45618094E+02    0.00000000E+00    0.11019673E-04
    2   -0.45618094E+02   -0.11802115E-10    0.69831144E-05
 
Total Energy:                      -45.2477524277 H        -1231.2540 eV
Extrapolated to 0:                 -45.2477524277 H        -1231.2540 eV
Total Mermin free energy:          -45.2477524277 H        -1231.2540 eV
Force related energy:              -45.2477524277 H        -1231.2540 eV

--------------------------------------------------------------------------------

***  Geometry step: 367

 iSCC Total electronic   Diff electronic      SCC error    
    1   -0.45618095E+02    0.00000000E+00    0.86740435E-05
 
Total Energy:                      -45.2477524257 H        -1231.2540 eV
Extrapolated to 0:                 -45.2477524257 H        -1231.2540 eV
Total Mermin free energy:          -45.2477524257 H        -1231.2540 eV
Force related energy:              -45.2477524257 H        -1231.2540 eV

--------------------------------------------------------------------------------

***  Geometry step: 368

 iSCC Total electronic   Diff electronic      SCC error    
    1   -0.45618094E+02    0.00000000E+00    0.71817449E-05
 
Total Energy:                      -45.2477524310 H        -1231.2540 eV
Extrapolated to 0:                 -45.2477524310 H        -1231.2540 eV
Total Mermin free energy:          -45.2477524310 H        -1231.2540 eV
Force related energy:              -45.2477524310 H        -1231.2540 eV

--------------------------------------------------------------------------------

***  Geometry step: 369

 iSCC Total electronic   Diff electronic      SCC error    
    1   -0.45618094E+02    0.00000000E+00    0.69667530E-05
 
Total Energy:                      -45.2477524227 H        -1231.2540 eV
Extrapolated to 0:                 -45.2477524227 H        -1231.2540 eV
Total Mermin free energy:          -45.2477524227 H        -1231.2540 eV
Force related energy:              -45.2477524227 H        -1231.2540 eV

--------------------------------------------------------------------------------

***  Geometry step: 370

 iSCC Total electronic   Diff electronic      SCC error    
    1   -0.45618093E+02    0.00000000E+00    0.98604399E-05
 
Total Energy:                      -45.2477524273 H        -1231.2540 eV
Extrapolated to 0:                 -45.2477524273 H        -1231.2540 eV
Total Mermin free energy:          -45.2477524273 H        -1231.2540 eV
Force related energy:              -45.2477524273 H        -1231.2540 eV

--------------------------------------------------------------------------------

***  Geometry step: 371

 iSCC Total electronic   Diff electronic      SCC error    
    1   -0.45618096E+02    0.00000000E+00    0.14371210E-04
    2   -0.45618096E+02   -0.87538865E-11    0.94730997E-05
 
Total Energy:                      -45.2477524253 H        -1231.2540 eV
Extrapolated to 0:                 -45.2477524253 H        -1231.2540 eV
Total Mermin free energy:          -45.2477524253 H        -1231.2540 eV
Force related energy:              -45.2477524253 H        -1231.2540 eV

Second derivatives completed
Hessian matrix written to hessian.out
 
--------------------------------------------------------------------------------
DFTB+ running times                          cpu [s]             wall clock [s]
--------------------------------------------------------------------------------
Pre-SCC initialisation                 +     1.12  (  3.8%)      1.12  (  3.3%)
SCC                                    +    21.39  ( 72.9%)     25.30  ( 74.9%)
Post-SCC processing                    +     6.81  ( 23.2%)      7.29  ( 21.6%)
--------------------------------------------------------------------------------
Missing                                +     0.04  (  0.1%)      0.06  (  0.2%)
Total                                  =    29.36  (100.0%)     33.76  (100.0%)
--------------------------------------------------------------------------------
